 vasp.5.3.5 31Mar14 (build Aug 26 2014 17:33:59) complex                         
 executed on             BlueGene date 2016.10.19  15:47:54
 running on  512 total cores
 distrk:  each k-point on  512 cores,    1 groups
 distr:  one band on NCORES_PER_BAND=  32 cores,   16 groups


--------------------------------------------------------------------------------------------------------


 INCAR:
 POTCAR:    PAW_PBE Al 04Jan2001                  
 POTCAR:    PAW_PBE Al 04Jan2001                  
   VRHFIN =Al: s2p1                                                             
   LEXCH  = PE                                                                  
   EATOM  =    53.5387 eV,    3.9350 Ry                                         
                                                                                
   TITEL  = PAW_PBE Al 04Jan2001                                                
   LULTRA =        F    use ultrasoft PP ?                                      
   IUNSCR =        1    unscreen: 0-lin 1-nonlin 2-no                           
   RPACOR =    1.500    partial core radius                                     
   POMASS =   26.981; ZVAL   =    3.000    mass and valenz                      
   RCORE  =    1.900    outmost cutoff radius                                   
   RWIGS  =    2.650; RWIGS  =    1.402    wigner-seitz radius (au A)           
   ENMAX  =  240.300; ENMIN  =  180.225 eV                                      
   ICORE  =        2    local potential                                         
   LCOR   =        T    correct aug charges                                     
   LPAW   =        T    paw PP                                                  
   EAUG   =  291.052                                                            
   DEXC   =    0.000                                                            
   RMAX   =    1.939    core radius for proj-oper                               
   RAUG   =    1.300    factor for augmentation sphere                          
   RDEP   =    1.966    radius for radial grids                                 
   RDEPT  =    1.856    core radius for aug-charge                              
                                                                                
   Atomic configuration                                                         
    6 entries                                                                   
     n  l   j            E        occ.                                          
     1  0  0.50     -1511.1048   2.0000                                         
     2  0  0.50      -108.1629   2.0000                                         
     2  1  1.50       -69.6402   6.0000                                         
     3  0  0.50        -7.7528   2.0000                                         
     3  1  1.50        -2.7121   1.0000                                         
     3  2  2.50        -2.7212   0.0000                                         
   Description                                                                  
     l       E           TYP  RCUT    TYP  RCUT                                 
     0     -7.7528455     23  1.900                                             
     0     -3.3096929     23  1.900                                             
     1     -2.7120682     23  1.900                                             
     1     13.6058260     23  1.900                                             
     2     -2.7211652      7  1.900                                             
  local pseudopotential read in
  partial core-charges read in
  partial kinetic energy density read in
  atomic valenz-charges read in
  non local Contribution for L= 0  read in
    real space projection operators read in
  non local Contribution for L= 0  read in
    real space projection operators read in
  non local Contribution for L= 1  read in
    real space projection operators read in
  non local Contribution for L= 1  read in
    real space projection operators read in
    PAW grid and wavefunctions read in
 
   number of l-projection  operators is LMAX  = 4
   number of lm-projection operators is LMMAX = 8
 
 Optimization of the real space projectors (new method)

 maximal supplied QI-value         = 19.84
 optimisation between [QCUT,QGAM] = [  8.73, 22.02] = [ 21.34,135.84] Ry 
 Optimized for a Real-space Cutoff    1.10 Angstroem

   l    n(q)    QCUT    max X(q) W(low)/X(q) W(high)/X(q)  e(spline) 
   0      7     8.731   176.870    0.86E-04    0.10E-03    0.57E-07
   0      7     8.731   105.762    0.85E-04    0.98E-04    0.55E-07
   1      7     8.731    55.370    0.39E-03    0.29E-03    0.46E-07
   1      7     8.731    20.208    0.35E-03    0.27E-03    0.44E-07
  PAW_PBE Al 04Jan2001                  :
 energy of atom  1       EATOM=  -53.5387
 kinetic energy error for atom=    0.0011 (will be added to EATOM!!)
 
 
 POSCAR: Alsys                                   
  positions in direct lattice
  velocities in cartesian coordinates
 
  Using predictor-coordinates on the file
 exchange correlation table for  LEXCH =        8
   RHO(1)=    0.500       N(1)  =     2000
   RHO(2)=  100.500       N(2)  =     4000

 ----------------------------------------------------------------------------- 
|                                                                             |
|           W    W    AA    RRRRR   N    N  II  N    N   GGGG   !!!           |
|           W    W   A  A   R    R  NN   N  II  NN   N  G    G  !!!           |
|           W    W  A    A  R    R  N N  N  II  N N  N  G       !!!           |
|           W WW W  AAAAAA  RRRRR   N  N N  II  N  N N  G  GGG   !            |
|           WW  WW  A    A  R   R   N   NN  II  N   NN  G    G                |
|           W    W  A    A  R    R  N    N  II  N    N   GGGG   !!!           |
|                                                                             |
|      VASP found    321 degrees of freedom                                   |
|      the temperature will equal 2*E(kin)/ (degrees of freedom)              |
|      this differs from previous releases, where T was 2*E(kin)/(3 NIONS).   |
|      The new definition is more consistent                                  |
|                                                                             |
 ----------------------------------------------------------------------------- 

 


--------------------------------------------------------------------------------------------------------


 ion  position               nearest neighbor table
   1  0.007  0.001  0.003-   2 1.97  26 1.97   4 2.00  28 2.00  10 2.00   3 2.02  76 2.03  75 2.03
                            11 2.04  34 2.05 100 2.06  83 2.07   5 2.73  13 2.84  25 2.88  37 2.89
   2  0.164  0.169  0.002-  13 1.94   1 1.97  17 1.97   5 1.99  76 1.99   8 2.01  80 2.02  15 2.02
                            87 2.02   4 2.05   3 2.05  75 2.06  10 2.79   6 2.82  14 2.84  26 2.88
   3  0.168  0.005  0.176-   4 1.95   8 1.95  38 1.96  41 2.00  32 2.00  62 2.01   1 2.02  37 2.02
                             5 2.05   2 2.05  28 2.06  26 2.15  15 2.77  39 2.80   7 2.83  27 2.87
   4  1.000  0.159  0.174-   3 1.95  11 1.99  46 1.99   1 2.00  37 2.00  10 2.00  15 2.02  23 2.02
                            38 2.03  49 2.04   2 2.05  13 2.05  40 2.78  28 2.79   8 2.82  12 2.86
   5  0.326  0.002  0.997-   2 1.99  26 2.00   6 2.01  80 2.01 104 2.02  75 2.02  30 2.02   8 2.04
                             3 2.05  79 2.05  32 2.05   7 2.07   1 2.73  77 2.80  17 2.83  29 2.85
   6  0.493  0.167  0.001-  91 1.97  80 1.98  19 1.99  21 2.00  17 2.00  79 2.01   8 2.01   5 2.01
                            12 2.02   7 2.03  84 2.04   9 2.05  30 2.80   2 2.82  42 2.83  18 2.83
   7  0.498  0.998  0.166-  30 1.96  66 1.99  41 2.00  32 2.00  45 2.01  12 2.03   6 2.03  36 2.03
                            42 2.05   9 2.05   8 2.05   5 2.07  31 2.81   3 2.83  79 2.86  43 2.86
   8  0.329  0.167  0.169-   3 1.95  15 1.98  17 1.99  38 2.00  42 2.00   6 2.01   2 2.01  41 2.02
                            19 2.03  53 2.03   5 2.04   7 2.05   4 2.82  32 2.83  80 2.85  20 2.86
   9  0.665  0.001  0.994-  84 1.94  79 1.98  30 1.99  12 1.99 108 2.02  10 2.04  83 2.05  36 2.05
                             7 2.05   6 2.05  11 2.06  34 2.07  81 2.75  21 2.78  33 2.84  45 2.89
  10  0.839  0.163  0.005-  11 1.98  12 1.99   1 2.00   4 2.00  76 2.01  95 2.02  83 2.03   9 2.04
                            21 2.04  23 2.04  13 2.05  84 2.09   2 2.79  46 2.81  34 2.83  22 2.84
  11  0.833  0.998  0.167-  10 1.98  46 1.99   4 1.99  36 2.00  28 2.00  12 2.02  34 2.03  45 2.03
                             1 2.04  37 2.06  70 2.06   9 2.06  35 2.81  23 2.86   3 2.87   7 2.87
  12  0.666  0.164  0.160-  21 1.92  10 1.99   9 1.99   6 2.02  11 2.02   7 2.03  19 2.03  45 2.03
                            57 2.04  46 2.04  23 2.05  42 2.06  84 2.78  24 2.83  36 2.85   4 2.86
  13  0.008  0.332  0.009-   2 1.94  15 1.96  14 2.00  16 2.02  22 2.02  87 2.02  23 2.03  76 2.04
                            10 2.05   4 2.05  88 2.07  95 2.08  17 2.74  49 2.81   1 2.84  25 2.85
  14  0.168  0.501  0.003-  17 1.99  25 1.99  20 2.00  13 2.00  87 2.01  16 2.02  27 2.02  92 2.02
                            29 2.02  88 2.03  99 2.08  15 2.09  18 2.82  22 2.84   2 2.84  26 2.85
  15  0.164  0.328  0.176-  13 1.96  49 1.96  38 1.97   8 1.98   4 2.02  50 2.02   2 2.02  17 2.03
                            53 2.03  16 2.06  20 2.06  14 2.09   3 2.77  51 2.78  23 2.79  19 2.87
  16  0.001  0.504  0.168-  22 2.00  27 2.00  13 2.02  14 2.02  25 2.02  58 2.02  35 2.03  61 2.03
                            50 2.04  23 2.04  49 2.05  15 2.06  52 2.82  28 2.82  24 2.84  20 2.84
  17  0.327  0.332  0.005-   2 1.97  80 1.98  14 1.99   8 1.99  87 2.00  92 2.00   6 2.00  19 2.01
                            20 2.02  15 2.03  18 2.03  91 2.05  13 2.74   5 2.83  53 2.84  89 2.86
  18  0.497  0.497  0.009-  31 1.94  19 1.94  20 1.97  24 1.97  91 2.01  92 2.02  17 2.03  29 2.05
                            96 2.05  21 2.06 103 2.07  33 2.09  54 2.74  14 2.82   6 2.83  90 2.86
  19  0.499  0.332  0.164-  18 1.94  21 1.98   6 1.99  42 1.99  17 2.01  53 2.02  54 2.02  24 2.02
                            12 2.03   8 2.03  20 2.03  57 2.04  91 2.76   7 2.86  55 2.87  15 2.87
  20  0.332  0.500  0.169-  18 1.97  14 2.00  54 2.01  65 2.01  50 2.01  53 2.02  17 2.02  19 2.03
                            31 2.04  27 2.05  15 2.06  29 2.08  56 2.83  16 2.84  92 2.84   8 2.86
  21  0.665  0.325  0.003-  12 1.92  91 1.96  19 1.98  24 1.98   6 2.00  84 2.00  95 2.02  10 2.04
                            96 2.05  18 2.06  22 2.07  23 2.08   9 2.78  57 2.81  93 2.85  17 2.89
  22  0.837  0.494  0.004-  24 1.96  95 1.99  16 2.00  13 2.02  23 2.02  35 2.03  25 2.04  96 2.04
                            88 2.05  21 2.07  33 2.08 107 2.10  58 2.83  10 2.84  14 2.84  94 2.87
  23  0.838  0.331  0.174-  49 1.97  57 1.99  46 2.01  24 2.01  22 2.02  58 2.02   4 2.02  13 2.03
                            16 2.04  10 2.04  12 2.05  21 2.08  59 2.77  15 2.79  11 2.86  95 2.87
  24  0.670  0.495  0.160-  22 1.96  18 1.97  21 1.98  23 2.01  19 2.02  54 2.03  35 2.04  69 2.04
                            33 2.04  58 2.04  57 2.05  31 2.10  96 2.75  12 2.83  16 2.84  36 2.89
  25  0.003  0.664  0.995-  14 1.99 107 2.00  88 2.00  26 2.00  27 2.01  34 2.02  99 2.02  16 2.02
                            22 2.04  35 2.05  28 2.07 100 2.09  29 2.82  97 2.83  13 2.85  33 2.86
  26  0.165  0.833  0.994-   1 1.97 100 1.99   5 2.00  25 2.00  29 2.00  99 2.02 104 2.02  27 2.02
                            28 2.04  32 2.07  75 2.07   3 2.15  34 2.80  98 2.84  30 2.85  14 2.85
  27  0.165  0.671  0.166-  28 1.98  32 2.00  16 2.00  25 2.01  14 2.02  26 2.02  61 2.04  29 2.04
                            65 2.04  20 2.05  62 2.05  50 2.07  35 2.86   3 2.87  31 2.87  63 2.89
  28  0.000  0.834  0.167-  27 1.98   1 2.00  11 2.00  34 2.01  35 2.02  61 2.03  37 2.03  26 2.04
                             3 2.06  62 2.06  25 2.07  70 2.09   4 2.79  32 2.82  16 2.82  36 2.85
  29  0.332  0.670  0.996- 103 1.97  31 1.98  26 2.00  99 2.01  14 2.02 104 2.03  92 2.03  30 2.03
                            27 2.04  18 2.05  32 2.06  20 2.08 101 2.76  25 2.82   5 2.85  33 2.89
  30  0.497  0.840  1.000-   7 1.96  31 1.98   9 1.99 103 2.00  79 2.01   5 2.02  36 2.03  29 2.03
                           104 2.03 108 2.04  32 2.05  33 2.08   6 2.80  66 2.83 102 2.84  26 2.85
  31  0.499  0.670  0.156-  18 1.94  30 1.98  29 1.98  33 1.98  36 2.01  69 2.04  66 2.04  32 2.04
                            20 2.04  54 2.07  65 2.08  24 2.10 103 2.70   7 2.81  35 2.85  27 2.87
  32  0.329  0.837  0.170-  41 2.00  62 2.00  27 2.00   7 2.00   3 2.00  65 2.02  66 2.03  31 2.04
                            30 2.05   5 2.05  29 2.06  26 2.07  28 2.82   8 2.83  20 2.88  68 2.89
  33  0.669  0.670  0.999- 108 1.97 103 1.97  35 1.97  36 1.98  31 1.98  96 2.00  34 2.01  24 2.04
                           107 2.06  30 2.08  22 2.08  18 2.09 105 2.83  69 2.83   9 2.84  25 2.86
  34  0.838  0.832  0.997-  35 1.99  28 2.01  33 2.01  25 2.02 107 2.03  11 2.03  83 2.04 108 2.04
                            36 2.04   1 2.05 100 2.05   9 2.07  26 2.80  10 2.83 106 2.83  22 2.90
  35  0.831  0.669  0.162-  33 1.97  36 1.98  34 1.99  28 2.02  16 2.03  22 2.03  69 2.03  24 2.04
                            70 2.04  58 2.04  25 2.05  61 2.09  11 2.81  31 2.85 107 2.86  27 2.86
  36  0.668  0.832  0.164-  35 1.98  33 1.98  66 2.00  11 2.00  31 2.01  69 2.03  70 2.03  30 2.03
                             7 2.03  34 2.04  45 2.04   9 2.05 108 2.84  12 2.85  28 2.85  72 2.88
  37  0.999  0.995  0.341-  64 1.96  62 1.99  40 1.99   4 2.00  47 2.02  46 2.02  39 2.02   3 2.02
                            28 2.03  70 2.04  11 2.06  38 2.07  73 2.75  61 2.78  45 2.87   1 2.89
  38  0.170  0.167  0.339-   3 1.96  15 1.97  44 1.99  51 1.99   8 2.00  39 2.00  40 2.02   4 2.03
                            41 2.03  49 2.04  53 2.04  37 2.07  74 2.79  42 2.81  62 2.83  50 2.86
  39  0.170  0.001  0.503-  98 1.96  62 1.99  73 1.99  38 2.00  74 2.00  77 2.01  37 2.02  41 2.04
                            64 2.04  68 2.05  44 2.05  40 2.06  75 2.76   3 2.80  43 2.84  51 2.86
  40  0.996  0.166  0.498-  82 1.97  73 1.99  37 1.99  49 2.00  46 2.01  38 2.02  85 2.03  59 2.03
                            74 2.04  47 2.04  39 2.06  51 2.06   4 2.78  48 2.84  64 2.87  76 2.89
  41  0.338  0.000  0.336-  43 1.98  42 2.00  32 2.00   3 2.00   7 2.00  66 2.02  62 2.02   8 2.02
                            38 2.03  39 2.04  68 2.06  44 2.07  45 2.79  65 2.85  53 2.87  77 2.87
  42  0.497  0.170  0.331-  53 1.96  19 1.99  57 1.99  41 2.00   8 2.00  43 2.02  55 2.03  45 2.03
                            44 2.03  48 2.05   7 2.05  12 2.06  38 2.81   6 2.83  54 2.83  46 2.85
  43  0.501  0.005  0.499-  41 1.98  48 1.99  45 2.00  42 2.02  72 2.03 102 2.03  68 2.04  44 2.04
                            78 2.05  81 2.05  77 2.05  66 2.07  47 2.79  39 2.84  55 2.85  79 2.85
  44  0.334  0.175  0.503-  51 1.97  53 1.98  78 1.99  38 1.99  89 1.99  74 2.00  55 2.00  77 2.01
                            42 2.03  43 2.04  39 2.05  41 2.07  56 2.79  48 2.83  80 2.86   8 2.86
  45  0.663  0.001  0.332-  46 1.96  66 1.99  43 2.00   7 2.01  47 2.02  72 2.02  42 2.03  11 2.03
                            12 2.03  70 2.03  36 2.04  48 2.05  41 2.79  57 2.80  37 2.87   9 2.89
  46  0.829  0.159  0.333-  45 1.96  11 1.99   4 1.99  47 2.00  57 2.00  23 2.01  40 2.01  37 2.02
                            48 2.02  12 2.04  59 2.07  49 2.09  10 2.81  70 2.82  42 2.85  82 2.86
  47  0.827  0.997  0.502-  72 1.96  46 2.00  70 2.01 106 2.01  73 2.01  37 2.02  81 2.02  45 2.02
                            48 2.03  40 2.04  82 2.06  64 2.06  43 2.79  83 2.82  71 2.87  11 2.87
  48  0.665  0.169  0.502-  43 1.99  57 1.99  55 2.00  78 2.01  93 2.02  46 2.02  59 2.03  47 2.03
                            42 2.05  82 2.05  45 2.05  81 2.05  44 2.83  40 2.84  60 2.85  72 2.86
  49  0.000  0.333  0.336-  15 1.96  23 1.97  40 2.00  59 2.00  51 2.01  52 2.02  50 2.03  38 2.04
                             4 2.04  58 2.05  16 2.05  46 2.09  85 2.79  13 2.81  57 2.85  61 2.89
  50  0.168  0.500  0.337-  51 2.00  52 2.00  56 2.01  20 2.01  63 2.02  65 2.02  15 2.02  49 2.03
                            53 2.03  16 2.04  61 2.05  27 2.07  86 2.83  14 2.86  38 2.86  54 2.87
  51  0.168  0.334  0.500-  44 1.97  74 1.99  85 1.99  38 1.99  50 2.00  86 2.00  49 2.01  89 2.02
                            53 2.03  56 2.03  40 2.06  52 2.06  15 2.78  63 2.85  39 2.86  55 2.86
  52  0.998  0.505  0.497-  97 1.97  61 1.97  58 1.99  50 2.00  85 2.01  71 2.01  49 2.02  94 2.02
                            63 2.03  59 2.03  51 2.06  86 2.08  64 2.80  16 2.82  60 2.86  88 2.87
  53  0.338  0.335  0.336-  42 1.96  55 1.98  44 1.98  56 1.99  54 2.01  20 2.02  19 2.02  51 2.03
                            15 2.03  50 2.03   8 2.03  38 2.04  57 2.83  17 2.84  65 2.85  41 2.87
  54  0.504  0.501  0.329-  69 1.94  60 2.01  20 2.01  53 2.01  55 2.02  19 2.02  67 2.03  24 2.03
                            65 2.04  56 2.04  57 2.04  31 2.07  18 2.74  58 2.82  42 2.83  66 2.84
  55  0.502  0.337  0.499-  53 1.98  60 1.98  56 1.99  44 2.00  78 2.00  48 2.00  57 2.02  54 2.02
                            42 2.03  90 2.03  93 2.04  89 2.08  67 2.78  59 2.82  43 2.85  51 2.86
  56  0.337  0.501  0.499-  67 1.98  55 1.99  53 1.99  50 2.01  65 2.01  63 2.02  86 2.02  51 2.03
                           101 2.04  54 2.04  90 2.04  89 2.05  44 2.79  60 2.81  20 2.83  68 2.84
  57  0.668  0.328  0.332-  59 1.99  23 1.99  42 1.99  48 1.99  46 2.00  55 2.02  12 2.04  19 2.04
                            54 2.04  24 2.05  60 2.06  58 2.06  45 2.80  21 2.81  53 2.83  49 2.85
  58  0.833  0.504  0.334-  71 1.97  52 1.99  59 2.00  69 2.00  60 2.01  23 2.02  16 2.02  61 2.03
                            24 2.04  35 2.04  49 2.05  57 2.06  70 2.79  54 2.82  22 2.83  94 2.87
  59  0.831  0.337  0.497-  57 1.99  58 2.00  49 2.00  60 2.00  94 2.01  82 2.02  85 2.03  48 2.03
                            52 2.03  40 2.03  93 2.05  46 2.07  23 2.77  71 2.79  55 2.82  51 2.88
  60  0.665  0.501  0.499-  71 1.95  67 1.96  55 1.98  59 2.00  54 2.01  69 2.01  58 2.01 105 2.03
                            93 2.06  57 2.06  94 2.06  90 2.08  56 2.81  48 2.85  52 2.86  72 2.86
  61  0.000  0.671  0.338-  64 1.96  52 1.97  70 2.01  62 2.02  28 2.03  58 2.03  16 2.03  63 2.03
                            27 2.04  71 2.04  50 2.05  35 2.09  37 2.78  97 2.80  65 2.86  49 2.89
  62  0.168  0.836  0.339-  37 1.99  39 1.99  64 1.99  32 2.00   3 2.01  41 2.02  61 2.02  63 2.02
                            65 2.03  68 2.05  27 2.05  28 2.06  98 2.77  38 2.83  66 2.87  50 2.88
  63  0.170  0.667  0.503-  98 1.99  97 2.00  86 2.02  50 2.02  68 2.02  56 2.02  65 2.02  64 2.02
                            62 2.02  52 2.03  61 2.03 101 2.04  99 2.77  67 2.85  51 2.85  39 2.86
  64  0.001  0.832  0.501-  37 1.96  61 1.96  62 1.99  73 2.00 106 2.01  98 2.01  97 2.02  63 2.02
                            70 2.04  39 2.04  47 2.06  71 2.09 100 2.79  52 2.80  28 2.86  40 2.87
  65  0.334  0.668  0.334-  20 2.01  56 2.01  32 2.02  50 2.02  63 2.02  62 2.03  66 2.03  54 2.04
                            27 2.04  67 2.05  68 2.05  31 2.08  69 2.81  53 2.85  41 2.85  61 2.86
  66  0.504  0.833  0.330-  45 1.99   7 1.99  69 1.99  36 2.00  41 2.02  72 2.02  32 2.03  65 2.03
                            31 2.04  43 2.07  68 2.08  67 2.08  70 2.78  30 2.83  54 2.84  62 2.87
  67  0.503  0.662  0.502-  60 1.96  56 1.98 105 1.98  69 2.02  68 2.03  54 2.03  72 2.04 101 2.04
                            65 2.05  90 2.05 102 2.08  66 2.08  71 2.77  55 2.78  63 2.85 103 2.90
  68  0.338  0.832  0.508- 102 1.95  98 1.95  63 2.02  67 2.03 101 2.04  43 2.04  39 2.05  65 2.05
                            62 2.05  41 2.06  77 2.08  66 2.08 104 2.75  72 2.81  56 2.84  64 2.89
  69  0.662  0.663  0.329-  54 1.94  66 1.99  58 2.00  60 2.01  70 2.01  67 2.02  36 2.03  71 2.03
                            35 2.03  31 2.04  24 2.04  72 2.09  65 2.81  33 2.83  57 2.87  61 2.90
  70  0.828  0.830  0.339-  72 1.96  71 1.99  47 2.01  61 2.01  69 2.01  36 2.03  45 2.03  64 2.04
                            37 2.04  35 2.04  11 2.06  28 2.09  66 2.78  58 2.79 106 2.81  46 2.82
  71  0.826  0.663  0.500-  60 1.95  58 1.97  70 1.99  52 2.01 105 2.01  72 2.01 106 2.03  69 2.03
                            94 2.03  61 2.04  97 2.07  64 2.09  67 2.77  59 2.79 107 2.82  47 2.87
  72  0.666  0.836  0.500-  47 1.96  70 1.96  71 2.01  66 2.02  45 2.02  43 2.03 106 2.03 102 2.03
                            67 2.04  81 2.05 105 2.05  69 2.09  68 2.81 108 2.85  48 2.86  60 2.86
  73  0.999  0.001  0.661- 100 1.97  40 1.99  39 1.99  75 2.00  64 2.00  83 2.00  47 2.01  82 2.02
                           106 2.02  98 2.04  74 2.04  76 2.07  37 2.75  81 2.86  77 2.87  85 2.88
  74  0.167  0.170  0.665-  75 1.97  77 1.98  51 1.99  89 1.99  44 2.00  39 2.00  85 2.02  80 2.04
                            73 2.04  87 2.04  76 2.04  40 2.04  38 2.79  86 2.81  82 2.82  78 2.84
  75  0.164  0.006  0.825- 100 1.97  74 1.97  77 1.97  76 1.97  73 2.00  98 2.02   5 2.02   1 2.03
                            80 2.04 104 2.04   2 2.06  26 2.07  39 2.76  83 2.79  87 2.83  79 2.88
  76  0.001  0.168  0.836-  75 1.97   2 1.99  83 1.99  95 2.00  10 2.01  82 2.02   1 2.03  87 2.03
                            13 2.04  74 2.04  73 2.07  85 2.08 100 2.82  88 2.82  80 2.83  84 2.89
  77  0.334  0.011  0.670-  75 1.97  74 1.98  78 1.99  79 1.99  80 1.99  44 2.01  39 2.01 104 2.02
                           102 2.04  43 2.05  98 2.05  68 2.08  89 2.77   5 2.80  81 2.84  41 2.87
  78  0.498  0.175  0.667-  93 1.98  77 1.99  44 1.99  89 1.99  55 2.00  48 2.01  91 2.02  84 2.03
                            80 2.03  79 2.04  43 2.05  81 2.06  90 2.75  74 2.84   6 2.86  42 2.88
  79  0.500  0.004  0.833-  84 1.95  81 1.97   9 1.98  77 1.99 102 1.99  30 2.01   6 2.01 104 2.02
                            78 2.04   5 2.05  80 2.05 108 2.07  91 2.82  43 2.85   7 2.86 103 2.86
  80  0.332  0.174  0.836-   6 1.98  89 1.98  17 1.98  87 1.98  77 1.99  91 2.00   5 2.01   2 2.02
                            78 2.03  75 2.04  74 2.04  79 2.05  92 2.74  76 2.83  84 2.85   8 2.85
  81  0.665  0.002  0.673-  84 1.96  79 1.97 102 2.00  83 2.00  47 2.02 108 2.02  43 2.05  72 2.05
                            48 2.05  78 2.06 106 2.07  82 2.08   9 2.75  77 2.84  93 2.84  73 2.86
  82  0.838  0.172  0.666-  40 1.97  85 1.99  95 2.01  73 2.02  93 2.02  76 2.02  59 2.02  83 2.03
                            48 2.05  47 2.06  81 2.08  84 2.09  94 2.77  74 2.82  46 2.86  10 2.91
  83  0.838  0.002  0.830-  76 1.99 100 2.00  73 2.00  81 2.00  82 2.03 106 2.03  10 2.03  84 2.03
                            34 2.04   9 2.05   1 2.07 108 2.10  75 2.79  47 2.82  95 2.82  11 2.88
  84  0.664  0.163  0.836-   9 1.94  79 1.95  81 1.96  21 2.00  91 2.01  78 2.03  83 2.03   6 2.04
                            93 2.04  95 2.05  10 2.09  82 2.09  12 2.78  80 2.85  48 2.86 108 2.86
  85  0.001  0.338  0.661-  94 1.96  82 1.99  51 1.99  88 2.00  86 2.01  52 2.01  74 2.02  59 2.03
                            40 2.03  87 2.06  76 2.08  95 2.09  97 2.78  49 2.79  89 2.83  93 2.86
  86  0.171  0.498  0.667-  89 1.95 101 2.00  99 2.00  87 2.00  51 2.00  85 2.01  88 2.01  63 2.02
                            56 2.02  97 2.03  92 2.03  52 2.08  90 2.80  74 2.81  50 2.83  94 2.88
  87  0.167  0.336  0.835-  88 1.96  92 1.97  80 1.98  89 1.98  17 2.00  86 2.00  14 2.01  13 2.02
                             2 2.02  76 2.03  74 2.04  85 2.06  75 2.83  99 2.84  95 2.86  51 2.87
  88  0.005  0.497  0.832-  87 1.96  85 2.00  25 2.00  86 2.01  94 2.02 107 2.02  97 2.02  99 2.03
                            14 2.03  95 2.04  22 2.05  13 2.07  76 2.82  92 2.83  52 2.87  16 2.88
  89  0.330  0.335  0.671-  86 1.95  92 1.97  80 1.98  87 1.98  78 1.99  90 1.99  44 1.99  74 1.99
                            51 2.02  56 2.05  91 2.07  55 2.08  77 2.77 101 2.80  85 2.83  17 2.86
  90  0.498  0.496  0.675-  92 1.97 101 1.98  89 1.99  96 2.00  91 2.00  93 2.01 105 2.03  55 2.03
                            56 2.04  67 2.05 103 2.06  60 2.08  78 2.75  86 2.80  18 2.86  94 2.89
  91  0.502  0.333  0.842-  21 1.96   6 1.97  96 1.99  92 1.99  80 2.00  90 2.00  84 2.01  18 2.01
                            78 2.02  93 2.03  17 2.05  89 2.07  19 2.76  79 2.82  95 2.84  87 2.87
  92  0.335  0.494  0.838-  89 1.97  90 1.97  87 1.97  91 1.99  17 2.00 101 2.01  14 2.02  18 2.02
                            86 2.03  29 2.03  99 2.06 103 2.08  80 2.74  96 2.82  88 2.83  20 2.84
  93  0.667  0.334  0.671-  78 1.98  94 2.01  90 2.01  82 2.02  96 2.02  48 2.02  95 2.03  91 2.03
                            84 2.04  55 2.04  59 2.05  60 2.06 105 2.84  81 2.84  21 2.85  85 2.86
  94  0.836  0.496  0.668-  85 1.96 107 2.00  93 2.01  59 2.01  97 2.02  88 2.02  52 2.02  71 2.03
                            95 2.04  60 2.06 105 2.07  96 2.07  82 2.77  58 2.87 106 2.87  22 2.87
  95  0.834  0.330  0.839-  22 1.99  76 2.00  82 2.01  21 2.02  10 2.02  93 2.03  94 2.04  88 2.04
                            96 2.05  84 2.05  13 2.08  85 2.09  83 2.82  91 2.84  87 2.86 107 2.87
  96  0.664  0.499  0.839-  91 1.99  90 2.00  33 2.00  93 2.02 103 2.02 105 2.04  22 2.04  18 2.05
                            95 2.05  21 2.05  94 2.07 107 2.07  24 2.75  92 2.82 108 2.82  84 2.88
  97  0.002  0.663  0.664-  52 1.97 107 1.98  63 2.00  99 2.00  64 2.02  94 2.02  88 2.02 106 2.03
                            86 2.03 100 2.05  71 2.07  98 2.08  85 2.78  61 2.80  25 2.83 101 2.87
  98  0.171  0.836  0.662-  68 1.95  39 1.96  63 1.99 104 1.99 100 1.99  64 2.01  75 2.02  99 2.02
                            73 2.04  77 2.05 101 2.06  97 2.08  62 2.77 102 2.81  26 2.84  74 2.86
  99  0.169  0.667  0.827- 101 1.95  86 2.00  97 2.00  29 2.01  26 2.02  25 2.02  98 2.02 104 2.03
                            88 2.03 100 2.03  92 2.06  14 2.08  63 2.77 107 2.82  87 2.84 103 2.86
 100  0.005  0.840  0.826-  75 1.97  73 1.97  26 1.99  98 1.99  83 2.00 106 2.00  99 2.03  34 2.05
                            97 2.05   1 2.06 107 2.06  25 2.09  64 2.79 104 2.80  76 2.82 108 2.91
 101  0.337  0.662  0.674-  99 1.95  90 1.98  86 2.00 104 2.01  92 2.01 103 2.02  56 2.04  68 2.04
                            63 2.04  67 2.04 102 2.05  98 2.06  29 2.76 105 2.80  89 2.80  97 2.87
 102  0.499  0.839  0.669-  68 1.95 104 1.98  79 1.99  81 2.00 108 2.01  43 2.03  72 2.03  77 2.04
                           105 2.05 101 2.05 103 2.06  67 2.08  98 2.81  30 2.84  78 2.88 106 2.89
 103  0.502  0.670  0.841- 108 1.95  33 1.97  29 1.97  30 2.00 101 2.02 105 2.02  96 2.02 104 2.04
                            90 2.06 102 2.06  18 2.07  92 2.08  31 2.70  79 2.86  99 2.86  91 2.89
 104  0.333  0.837  0.829- 102 1.98  98 1.99 101 2.01  77 2.02  26 2.02   5 2.02  79 2.02  99 2.03
                            29 2.03  30 2.03  75 2.04 103 2.04  68 2.75 100 2.80 108 2.86  80 2.88
 105  0.663  0.665  0.669- 108 1.98  67 1.98  71 2.01 103 2.02  60 2.03  90 2.03  96 2.04 107 2.04
                           106 2.04 102 2.05  72 2.05  94 2.07 101 2.80  33 2.83  93 2.84  81 2.88
 106  0.835  0.831  0.666- 107 1.99 100 2.00  47 2.01  64 2.01  73 2.02  71 2.03  97 2.03  72 2.03
                            83 2.03 108 2.04 105 2.04  81 2.07  70 2.81  34 2.83  94 2.87  98 2.88
 107  0.840  0.665  0.829-  97 1.98 106 1.99  25 2.00  94 2.00  88 2.02  34 2.03 105 2.04 108 2.04
                            33 2.06 100 2.06  96 2.07  22 2.10  99 2.82  71 2.82  35 2.86  95 2.87
 108  0.666  0.828  0.833- 103 1.95  33 1.97 105 1.98 102 2.01  81 2.02   9 2.02  30 2.04 106 2.04
                            34 2.04 107 2.04  79 2.07  83 2.10  96 2.82  36 2.84  72 2.85 104 2.86
 

IMPORTANT INFORMATION: All symmetrisations will be switched off!
NOSYMM: (Re-)initialisation of all symmetry stuff for point group C_1.

 
 
 KPOINTS: 2x2x1           This is a comment line  

Automatic generation of k-mesh.
Space group operators:
 irot       det(A)        alpha          n_x          n_y          n_z        tau_x        tau_y        tau_z
    1     1.000000     0.000000     1.000000     0.000000     0.000000     0.000000     0.000000     0.000000
 
 Subroutine IBZKPT returns following result:
 ===========================================
 
 Found      4 irreducible k-points:
 
 Following reciprocal coordinates:
            Coordinates               Weight
  0.250000  0.250000  0.250000      2.000000
 -0.250000  0.250000  0.250000      2.000000
  0.250000 -0.250000  0.250000      2.000000
 -0.250000 -0.250000  0.250000      2.000000
 
 Following cartesian coordinates:
            Coordinates               Weight
  0.029178  0.029178  0.029178      2.000000
 -0.029178  0.029178  0.029178      2.000000
  0.029178 -0.029178  0.029178      2.000000
 -0.029178 -0.029178  0.029178      2.000000
 


--------------------------------------------------------------------------------------------------------




 Dimension of arrays:
   k-points           NKPTS =      4   k-points in BZ     NKDIM =      4   number of bands    NBANDS=    224
   number of dos      NEDOS =    301   number of ions     NIONS =    108
   non local maximal  LDIM  =      4   non local SUM 2l+1 LMDIM =      8
   total plane-waves  NPLWV = 110592
   max r-space proj   IRMAX =   1028   max aug-charges    IRDMAX=   2227
   dimension x,y,z NGX =    48 NGY =   48 NGZ =   48
   dimension x,y,z NGXF=    64 NGYF=   64 NGZF=   64
   support grid    NGXF=    64 NGYF=   64 NGZF=   64
   ions per type =             108
 NGX,Y,Z   is equivalent  to a cutoff of   9.31,  9.31,  9.31 a.u.
 NGXF,Y,Z  is equivalent  to a cutoff of  12.42, 12.42, 12.42 a.u.


 I would recommend the setting:
   dimension x,y,z NGX =    48 NGY =   48 NGZ =   48
 SYSTEM =  water                                   
 POSCAR =  Alsys                                   

 Startparameter for this run:
   NWRITE =      3    write-flag & timer
   PREC   = high      normal or accurate (medium, high low for compatibility)
   ISTART =      0    job   : 0-new  1-cont  2-samecut
   ICHARG =      2    charge: 1-file 2-atom 10-const
   ISPIN  =      1    spin polarized calculation?
   LNONCOLLINEAR =      F non collinear calculations
   LSORBIT =      F    spin-orbit coupling
   INIWAV =      1    electr: 0-lowe 1-rand  2-diag
   LASPH  =      F    aspherical Exc in radial PAW
   METAGGA=      F    non-selfconsistent MetaGGA calc.

 Electronic Relaxation 1
   ENCUT  =  300.4 eV  22.08 Ry    4.70 a.u.  12.11 12.11 12.11*2*pi/ulx,y,z
   ENINI  =  300.4     initial cutoff
   ENAUG  =  291.1 eV  augmentation charge cutoff
   NELM   =     60;   NELMIN=  4; NELMDL=-12     # of ELM steps 
   EDIFF  = 0.1E-03   stopping-criterion for ELM
   LREAL  =      T    real-space projection
   NLSPLINE    = F    spline interpolate recip. space projectors
   LCOMPAT=      F    compatible to vasp.4.4
   GGA_COMPAT  = T    GGA compatible to vasp.4.4-vasp.4.6
   LMAXPAW     = -100 max onsite density
   LMAXMIX     =    2 max onsite mixed and CHGCAR
   VOSKOWN=      0    Vosko Wilk Nusair interpolation
   ROPT   =   -0.00040
 Ionic relaxation
   EDIFFG = 0.1E-02   stopping-criterion for IOM
   NSW    =  20000    number of steps for IOM
   NBLOCK =      1;   KBLOCK =  20000    inner block; outer block 
   IBRION =      0    ionic relax: 0-MD 1-quasi-New 2-CG
   NFREE  =      0    steps in history (QN), initial steepest desc. (CG)
   ISIF   =      2    stress and relaxation
   IWAVPR =     12    prediction:  0-non 1-charg 2-wave 3-comb
   ISYM   =      0    0-nonsym 1-usesym 2-fastsym
   LCORR  =      T    Harris-Foulkes like correction to forces

   POTIM  = 0.5000    time-step for ionic-motion
   TEIN   =  283.4    initial temperature
   TEBEG  =  300.0;   TEEND  = 300.0 temperature during run
   SMASS  =   0.50    Nose mass-parameter (am)
   estimated Nose-frequenzy (Omega)   =  0.66E+14 period in steps =190.25 mass=   0.280E-27a.u.
   SCALEE = 1.0000    scale energy and forces
   NPACO  =    256;   APACO  = 16.0  distance and # of slots for P.C.
   PSTRESS=    0.0 pullay stress

  Mass of Ions in am
   POMASS =  26.98
  Ionic Valenz
   ZVAL   =   3.00
  Atomic Wigner-Seitz radii
   RWIGS  =  -1.00
  virtual crystal weights 
   VCA    =   1.00
   NELECT =     324.0000    total number of electrons
   NUPDOWN=      -1.0000    fix difference up-down

 DOS related values:
   EMIN   =  10.00;   EMAX   =-10.00  energy-range for DOS
   EFERMI =   0.00
   ISMEAR =    -1;   SIGMA  =   0.03  broadening in eV -4-tet -1-fermi 0-gaus

 Electronic relaxation 2 (details)
   IALGO  =     48    algorithm
   LDIAG  =      T    sub-space diagonalisation (order eigenvalues)
   LSUBROT=      F    optimize rotation matrix (better conditioning)
   TURBO    =      0    0=normal 1=particle mesh
   IRESTART =      0    0=no restart 2=restart with 2 vectors
   NREBOOT  =      0    no. of reboots
   NMIN     =      0    reboot dimension
   EREF     =   0.00    reference energy to select bands
   IMIX   =      4    mixing-type and parameters
     AMIX     =   0.40;   BMIX     =  2.00
     AMIX_MAG =   1.60;   BMIX_MAG =  2.00
     AMIN     =   0.10
     WC   =   100.;   INIMIX=   1;  MIXPRE=   1;  MAXMIX=  50

 Intra band minimization:
   WEIMIN = 0.0010     energy-eigenvalue tresh-hold
   EBREAK =  0.11E-06  absolut break condition
   DEPER  =   0.30     relativ break condition  

   TIME   =   0.40     timestep for ELM

  volume/ion in A,a.u.               =       5.82        39.30
  Fermi-wavevector in a.u.,A,eV,Ry     =   1.312332  2.479948 23.432160  1.722215
  Thomas-Fermi vector in A             =   2.442732
 
 Write flags
   LWAVE  =      F    write WAVECAR
   LCHARG =      T    write CHGCAR
   LVTOT  =      F    write LOCPOT, total local potential
   LVHAR  =      F    write LOCPOT, Hartree potential only
   LELF   =      F    write electronic localiz. function (ELF)
   LORBIT =      0    0 simple, 1 ext, 2 COOP (PROOUT)


 Dipole corrections
   LMONO  =      F    monopole corrections only (constant potential shift)
   LDIPOL =      F    correct potential (dipole corrections)
   IDIPOL =      0    1-x, 2-y, 3-z, 4-all directions 
   EPSILON=  1.0000000 bulk dielectric constant

 Exchange correlation treatment:
   GGA     =    --    GGA type
   LEXCH   =     8    internal setting for exchange type
   VOSKOWN=      0    Vosko Wilk Nusair interpolation
   LHFCALC =     F    Hartree Fock is set to
   LHFONE  =     F    Hartree Fock one center treatment
   AEXX    =    0.0000 exact exchange contribution

 Linear response parameters
   LEPSILON=     F    determine dielectric tensor
   LRPA    =     F    only Hartree local field effects (RPA)
   LNABLA  =     F    use nabla operator in PAW spheres
   LVEL    =     F    velocity operator in full k-point grid
   LINTERFAST=   F  fast interpolation
   KINTER  =     0    interpolate to denser k-point grid
   CSHIFT  =0.1000    complex shift for real part using Kramers Kronig
   OMEGAMAX=  -1.0    maximum frequency
   DEG_THRESHOLD= 0.2000000E-02 threshold for treating states as degnerate
   RTIME   =    0.100 relaxation time in fs

 Orbital magnetization related:
   ORBITALMAG=     F  switch on orbital magnetization
   LCHIMAG   =     F  perturbation theory with respect to B field
   DQ        =  0.001000  dq finite difference perturbation B field



--------------------------------------------------------------------------------------------------------


 molecular dynamics for ions
   using nose mass (canonical ensemble)
 charge density and potential will be updated during run
 non-spin polarized calculation
 RMM-DIIS sequential band-by-band
 perform sub-space diagonalisation
    before iterative eigenvector-optimisation
 modified Broyden-mixing scheme, WC =      100.0
 initial mixing is a Kerker type mixing with AMIX =  0.4000 and BMIX =      2.0000
 Hartree-type preconditioning will be used
 using additional bands  62
 real space projection scheme for non local part
 use partial core corrections
 calculate Harris-corrections to forces   (improved forces if not selfconsistent)
 use gradient corrections 
 use of overlap-Matrix (Vanderbilt PP)
 Fermi-smearing in eV        SIGMA  =   0.03


--------------------------------------------------------------------------------------------------------


  energy-cutoff  :      300.38
  volume of cell :      628.98
      direct lattice vectors                 reciprocal lattice vectors
     8.568000000  0.000000000  0.000000000     0.116713352  0.000000000  0.000000000
     0.000000000  8.568000000  0.000000000     0.000000000  0.116713352  0.000000000
     0.000000000  0.000000000  8.568000000     0.000000000  0.000000000  0.116713352

  length of vectors
     8.568000000  8.568000000  8.568000000     0.116713352  0.116713352  0.116713352


 
 k-points in units of 2pi/SCALE and weight: 2x2x1           This is a comment line  
   0.02917834  0.02917834  0.02917834       0.250
  -0.02917834  0.02917834  0.02917834       0.250
   0.02917834 -0.02917834  0.02917834       0.250
  -0.02917834 -0.02917834  0.02917834       0.250
 
 k-points in reciprocal lattice and weights: 2x2x1           This is a comment line  
   0.25000000  0.25000000  0.25000000       0.250
  -0.25000000  0.25000000  0.25000000       0.250
   0.25000000 -0.25000000  0.25000000       0.250
  -0.25000000 -0.25000000  0.25000000       0.250
 
 position of ions in fractional coordinates (direct lattice) 
   0.00735905  0.00079259  0.00327903
   0.16407311  0.16896351  0.00167177
   0.16794789  0.00537566  0.17613964
   0.99970329  0.15901757  0.17445907
   0.32583567  0.00220347  0.99681847
   0.49289560  0.16710689  0.00076839
   0.49830687  0.99765030  0.16586371
   0.32899023  0.16680337  0.16883016
   0.66470034  0.00072616  0.99439021
   0.83872230  0.16252418  0.00480439
   0.83328702  0.99764708  0.16650099
   0.66628497  0.16422318  0.15977999
   0.00760377  0.33190468  0.00870047
   0.16831037  0.50062260  0.00337422
   0.16374097  0.32827068  0.17577961
   0.00079037  0.50438002  0.16845402
   0.32703530  0.33182918  0.00463398
   0.49679521  0.49743227  0.00917704
   0.49893388  0.33179858  0.16433125
   0.33220811  0.50038997  0.16902536
   0.66461431  0.32481870  0.00347766
   0.83676046  0.49351697  0.00352201
   0.83794677  0.33086026  0.17372532
   0.67009277  0.49467016  0.16015107
   0.00310862  0.66436757  0.99498404
   0.16480851  0.83312225  0.99375747
   0.16469505  0.67116118  0.16556387
   0.00034638  0.83398244  0.16654465
   0.33227914  0.66997079  0.99578673
   0.49713494  0.84006163  0.99997304
   0.49916916  0.67017864  0.15590218
   0.32931174  0.83657527  0.16990495
   0.66926835  0.66969664  0.99865514
   0.83844152  0.83228114  0.99685959
   0.83139376  0.66931929  0.16219320
   0.66804956  0.83218967  0.16372636
   0.99879903  0.99522752  0.34078255
   0.16972346  0.16668355  0.33907738
   0.16957692  0.00069069  0.50332663
   0.99575099  0.16613435  0.49838931
   0.33820143  0.00025960  0.33576076
   0.49743962  0.17020662  0.33113870
   0.50100560  0.00492707  0.49945202
   0.33423539  0.17480837  0.50289164
   0.66342367  0.00110025  0.33205034
   0.82946293  0.15900392  0.33282026
   0.82704929  0.99737068  0.50190144
   0.66454305  0.16923558  0.50163129
   0.00041086  0.33334204  0.33607671
   0.16828000  0.50048023  0.33685857
   0.16784945  0.33404447  0.50047770
   0.99824090  0.50460679  0.49731914
   0.33804846  0.33490554  0.33621078
   0.50360887  0.50099688  0.32901383
   0.50193555  0.33716072  0.49890682
   0.33710993  0.50064067  0.49905227
   0.66789367  0.32820418  0.33198683
   0.83259924  0.50378177  0.33400325
   0.83121091  0.33686543  0.49665828
   0.66503939  0.50144731  0.49862852
   0.00030696  0.67072699  0.33758774
   0.16838807  0.83644576  0.33894738
   0.17030253  0.66693112  0.50332524
   0.00122270  0.83158244  0.50070513
   0.33416647  0.66751633  0.33359109
   0.50354747  0.83294724  0.32962169
   0.50277819  0.66200006  0.50246543
   0.33837856  0.83175463  0.50756771
   0.66221913  0.66272012  0.32858002
   0.82753646  0.82967774  0.33854890
   0.82561062  0.66295082  0.49975146
   0.66597672  0.83556036  0.50037165
   0.99891963  0.00090413  0.66114822
   0.16673389  0.17001933  0.66461999
   0.16413155  0.00574218  0.82528319
   0.00087974  0.16798069  0.83589489
   0.33410558  0.01143890  0.67046084
   0.49822534  0.17497916  0.66706850
   0.49982198  0.00370645  0.83258337
   0.33156906  0.17386801  0.83622330
   0.66515948  0.00172520  0.67293505
   0.83802014  0.17240553  0.66570628
   0.83816961  0.00180041  0.83030711
   0.66356628  0.16250340  0.83564725
   0.00063858  0.33758901  0.66146006
   0.17133511  0.49775348  0.66700655
   0.16730703  0.33637792  0.83525923
   0.00450133  0.49665232  0.83228757
   0.33039235  0.33524324  0.67127767
   0.49800185  0.49612299  0.67503372
   0.50240897  0.33276209  0.84169270
   0.33531606  0.49396550  0.83753737
   0.66682005  0.33372067  0.67073621
   0.83550964  0.49594976  0.66834508
   0.83365985  0.33043085  0.83875843
   0.66418973  0.49895510  0.83878070
   0.00176055  0.66254744  0.66428486
   0.17101260  0.83627528  0.66204592
   0.16868427  0.66720646  0.82700180
   0.00537995  0.83960110  0.82563139
   0.33679308  0.66175201  0.67356793
   0.49861634  0.83864878  0.66868659
   0.50223981  0.67023746  0.84067424
   0.33262427  0.83745496  0.82871893
   0.66328366  0.66529141  0.66900097
   0.83542218  0.83059519  0.66611637
   0.83954477  0.66507434  0.82902270
   0.66578053  0.82836091  0.83273970
 
 position of ions in cartesian coordinates  (Angst):
   0.06305232  0.00679089  0.02809471
   1.40577841  1.44767935  0.01432374
   1.43897752  0.04605864  1.50916444
   8.56545779  1.36246254  1.49476531
   2.79176002  0.01887936  8.54074065
   4.22312950  1.43177183  0.00658359
   4.26949326  8.54786777  1.42112027
   2.81878829  1.42917127  1.44653681
   5.69515251  0.00622175  8.51993532
   7.18617267  1.39250717  0.04116401
   7.13960319  8.54784018  1.42658048
   5.70872962  1.40706421  1.36899495
   0.06514908  2.84375930  0.07454562
   1.44208325  4.28933444  0.02891033
   1.40293263  2.81262319  1.50607970
   0.00677193  4.32152801  1.44331404
   2.80203845  2.84311241  0.03970392
   4.25654136  4.26199969  0.07862888
   4.27486548  2.84285023  1.40799015
   2.84635909  4.28734126  1.44820928
   5.69441541  2.78304662  0.02979658
   7.16936362  4.22845340  0.03017656
   7.17952793  2.83481071  1.48847854
   5.74135485  4.23833393  1.37217437
   0.02663465  5.69230134  8.52502325
   1.41207931  7.13819144  8.51451400
   1.41110719  5.75050899  1.41855124
   0.00296781  7.14556155  1.42695456
   2.84696767  5.74030973  8.53190070
   4.25945217  7.19764805  8.56776901
   4.27688136  5.74209059  1.33576988
   2.82154299  7.16777691  1.45574561
   5.73429122  5.73796081  8.55647724
   7.18376694  7.13098481  8.54109297
   7.12338174  5.73472768  1.38967134
   5.72384863  7.13020109  1.40280745
   8.55771009  8.52710939  2.91982489
   1.45419061  1.42814466  2.90521499
   1.45293505  0.00591787  4.31250257
   8.53159448  1.42343911  4.27019961
   2.89770985  0.00222427  2.87679819
   4.26206266  1.45833032  2.83719638
   4.29261598  0.04221513  4.27930491
   2.86372882  1.49775811  4.30877557
   5.68421400  0.00942690  2.84500731
   7.10683838  1.36234559  2.85160399
   7.08615832  8.54547199  4.30029154
   5.69380485  1.45001045  4.29797689
   0.00352022  2.85607460  2.87950525
   1.44182304  4.28811461  2.88620423
   1.43813409  2.86209302  4.28809293
   8.55292803  4.32347098  4.26103039
   2.89639921  2.86947067  2.88065396
   4.31492080  4.29254127  2.81899050
   4.30058379  2.88879305  4.27463363
   2.88835788  4.28948926  4.27587985
   5.72251296  2.81205341  2.84446316
   7.13371029  4.31640221  2.86173985
   7.12181508  2.88626300  4.25536814
   5.69805749  4.29640055  4.27224916
   0.00263004  5.74678885  2.89245176
   1.44274898  7.16666727  2.90410115
   1.45915208  5.71426584  4.31249066
   0.01047606  7.12499835  4.29004155
   2.86313831  5.71927992  2.85820846
   4.31439472  7.13669195  2.82419864
   4.30780353  5.67201651  4.30512380
   2.89922750  7.12647367  4.34884014
   5.67389351  5.67818599  2.81527361
   7.09033239  7.10867888  2.90068698
   7.07383179  5.68016263  4.28187051
   5.70608854  7.15908116  4.28718430
   8.55874339  0.00774662  5.66471795
   1.42857597  1.45672562  5.69446407
   1.40627912  0.04919900  7.07102637
   0.00753761  1.43925855  7.16194742
   2.86261661  0.09800852  5.74450848
   4.26879471  1.49922144  5.71544291
   4.28247472  0.03175689  7.13357431
   2.84088371  1.48970111  7.16476123
   5.69908642  0.01478152  5.76570751
   7.18015656  1.47717058  5.70377141
   7.18143722  0.01542588  7.11407132
   5.68543589  1.39232913  7.15982564
   0.00547135  2.89246264  5.66738979
   1.46799922  4.26475182  5.71491212
   1.43348663  2.88208602  7.15650108
   0.03856741  4.25531708  7.13103990
   2.83080165  2.87236408  5.75150708
   4.26687985  4.25078178  5.78368891
   4.30464005  2.85110559  7.21162305
   2.87298800  4.23229640  7.17602019
   5.71331419  2.85931870  5.74686785
   7.15864660  4.24929754  5.72638065
   7.14279759  2.83113152  7.18648223
   5.69077761  4.27504730  7.18667304
   0.01508440  5.67670647  5.69159268
   1.46523596  7.16520660  5.67240944
   1.44528683  5.71662495  7.08575142
   0.04609542  7.19370222  7.07400975
   2.88564311  5.66989122  5.77113002
   4.27214480  7.18554275  5.72930670
   4.30319069  5.74259456  7.20289689
   2.84992475  7.17531410  7.10046379
   5.68301440  5.70021680  5.73200031
   7.15789724  7.11653959  5.70728506
   7.19321959  5.69835695  7.10306649
   5.70440758  7.09739628  7.13491375
 


--------------------------------------------------------------------------------------------------------


 k-point  1 :   0.2500 0.2500 0.2500  plane waves:    7451
 k-point  2 :  -0.2500 0.2500 0.2500  plane waves:    7451
 k-point  3 :   0.2500-0.2500 0.2500  plane waves:    7451
 k-point  4 :  -0.2500-0.2500 0.2500  plane waves:    7451

 maximum and minimum number of plane-waves per node :       242      223

 maximum number of plane-waves:      7451
 maximum index in each direction: 
   IXMAX=   12   IYMAX=   12   IZMAX=   11
   IXMIN=  -12   IYMIN=  -12   IZMIN=  -12

 WARNING: aliasing errors must be expected set NGX to  50 to avoid them
 WARNING: aliasing errors must be expected set NGY to  50 to avoid them
 NGZ is ok and might be reduce to  48
 aliasing errors are usually negligible using standard VASP settings
 and one can safely disregard these warnings

 real space projection operators:
  total allocation   :       6393.12 KBytes
  max/ min on nodes  :        300.06        120.44


 parallel 3D FFT for wavefunctions:
    minimum data exchange during FFTs selected (reduces bandwidth)
 parallel 3D FFT for charge:
    minimum data exchange during FFTs selected (reduces bandwidth)


 total amount of memory used by VASP on root node    33184. kBytes
========================================================================

   base      :      30000. kBytes
   nonlr-proj:       2138. kBytes
   fftplans  :        405. kBytes
   grid      :        386. kBytes
   one-center:         12. kBytes
   wavefun   :        243. kBytes
 
     INWAV:  cpu time********: real time    0.00
 Broyden mixing: mesh for mixing (old mesh)
   NGX = 25   NGY = 25   NGZ = 25
  (NGX  = 64   NGY  = 64   NGZ  = 64)
  gives a total of  15625 points

 initial charge density was supplied:
 charge density of overlapping atoms calculated
 number of electron     324.0000000 magnetization 
 keeping initial charge density in first step


--------------------------------------------------------------------------------------------------------


 Maximum index for non-local projection operator  119
 Maximum index for augmentation-charges  194 (set IRDMAX)


--------------------------------------------------------------------------------------------------------


 First call to EWALD:  gamma=   0.207
 Maximum number of real-space cells 3x 3x 3
 Maximum number of reciprocal cells 3x 3x 3

 FEWALD executed in parallel
    FEWALD:  cpu time********: real time    0.03


----------------------------------------- Iteration    1(   1)  ---------------------------------------


    POTLOK:  cpu time********: real time    0.04
    SETDIJ:  cpu time********: real time    0.03
    EDDIAG:  cpu time********: real time    1.24
  RMM-DIIS:  cpu time********: real time    0.23
    ORTHCH:  cpu time********: real time    0.10
       DOS:  cpu time********: real time    0.00
    --------------------------------------------
      LOOP:  cpu time********: real time    1.71

 eigenvalue-minimisations  :   896
 total energy-change (2. order) : 0.2552348E+04  (-0.7170065E+04)
 number of electron     324.0000000 magnetization 
 augmentation part      324.0000000 magnetization 

 Free energy of the ion-electron system (eV)
  ---------------------------------------------------
  alpha Z        PSCENC =       -62.28659098
  Ewald energy   TEWEN  =    -11228.00606971
  -Hartree energ DENC   =       -18.19733798
  -exchange      EXHF   =         0.00000000
  -V(xc)+E(xc)   XCENC  =     -2625.42429134
  PAW double counting   =      7149.61696960    -3698.52704172
  entropy T*S    EENTRO =        -0.03115502
  eigenvalues    EBANDS =      7253.13973070
  atomic energy  EATOM  =      5782.06403978
  ---------------------------------------------------
  free energy    TOTEN  =      2552.34825332 eV

  energy without entropy =     2552.37940834  energy(sigma->0) =     2552.36383083


--------------------------------------------------------------------------------------------------------




 average (electrostatic) potential at core
  the test charge radii are     1.0406
  (the norm of the test charge is              1.0000)
       1 -56.2917       2 -56.7266       3 -56.4161       4 -56.5761       5 -56.1254
       6 -56.6956       7 -56.2760       8 -56.6096       9 -56.2196      10 -56.1852
      11 -56.2142      12 -56.3991      13 -56.2880      14 -56.2911      15 -56.4861
      16 -56.0844      17 -56.7932      18 -56.4927      19 -56.6455      20 -56.1882
      21 -56.5273      22 -55.9325      23 -56.2093      24 -56.2273      25 -56.0694
      26 -56.0799      27 -55.9887      28 -55.9321      29 -56.1505      30 -56.4020
      31 -56.2221      32 -56.0872      33 -56.3157      34 -55.9346      35 -56.1010
      36 -56.3127      37 -56.3488      38 -56.5914      39 -56.4155      40 -56.3082
      41 -56.3173      42 -56.4053      43 -56.0839      44 -56.6313      45 -56.3316
      46 -56.3743      47 -56.3234      48 -56.1893      49 -56.3242      50 -56.1550
      51 -56.5450      52 -56.4421      53 -56.6155      54 -56.2747      55 -56.4724
      56 -56.3702      57 -56.2427      58 -56.3068      59 -56.2779      60 -56.3959
      61 -56.1318      62 -56.2478      63 -56.3157      64 -56.4544      65 -55.9024
      66 -56.0675      67 -56.0789      68 -56.0025      69 -56.3248      70 -56.1662
      71 -56.3806      72 -56.1651      73 -56.5283      74 -56.5768      75 -56.5709
      76 -56.2236      77 -56.5394      78 -56.4694      79 -56.5995      80 -56.7566
      81 -56.1071      82 -56.0584      83 -55.9875      84 -56.4079      85 -56.3007
      86 -56.6133      87 -56.7439      88 -56.2340      89 -56.8388      90 -56.3153
      91 -56.6834      92 -56.6081      93 -56.1213      94 -56.1457      95 -55.8667
      96 -55.9169      97 -56.3087      98 -56.5483      99 -56.3121     100 -56.2663
     101 -56.3413     102 -56.2100     103 -56.3213     104 -56.3637     105 -56.0547
     106 -56.1443     107 -55.9304     108 -56.2358
 
 
 
 E-fermi :  39.6759     XC(G=0): -14.6389     alpha+bet :-42.1469


 k-point     1 :       0.2500    0.2500    0.2500
  band No.  band energies     occupation 
      1       4.6931      2.00000
      2       5.6514      2.00000
      3       5.7456      2.00000
      4       5.8740      2.00000
      5       6.7438      2.00000
      6       6.8782      2.00000
      7       6.7889      2.00000
      8       7.8206      2.00000
      9       7.7386      2.00000
     10       7.8001      2.00000
     11       7.9593      2.00000
     12       8.7433      2.00000
     13       8.7143      2.00000
     14       8.9283      2.00000
     15       8.8511      2.00000
     16       9.1038      2.00000
     17       9.0772      2.00000
     18       9.8911      2.00000
     19      10.0358      2.00000
     20      10.0909      2.00000
     21      10.9225      2.00000
     22      11.1606      2.00000
     23      11.3057      2.00000
     24      11.4043      2.00000
     25      11.4062      2.00000
     26      11.7275      2.00000
     27      11.7697      2.00000
     28      12.0076      2.00000
     29      11.9430      2.00000
     30      12.1645      2.00000
     31      12.3560      2.00000
     32      12.5617      2.00000
     33      12.7621      2.00000
     34      13.0738      2.00000
     35      13.1015      2.00000
     36      13.0679      2.00000
     37      13.4866      2.00000
     38      13.5676      2.00000
     39      14.0940      2.00000
     40      14.3516      2.00000
     41      14.8916      2.00000
     42      14.7585      2.00000
     43      15.1356      2.00000
     44      14.9517      2.00000
     45      15.3555      2.00000
     46      15.6490      2.00000
     47      15.4648      2.00000
     48      15.5052      2.00000
     49      15.9982      2.00000
     50      15.9346      2.00000
     51      15.9620      2.00000
     52      16.3304      2.00000
     53      16.6720      2.00000
     54      16.9705      2.00000
     55      16.8919      2.00000
     56      17.0964      2.00000
     57      17.4912      2.00000
     58      17.1471      2.00000
     59      17.7437      2.00000
     60      17.6979      2.00000
     61      17.9574      2.00000
     62      18.0214      2.00000
     63      18.7779      2.00000
     64      18.7031      2.00000
     65      18.3794      2.00000
     66      18.8293      2.00000
     67      19.0368      2.00000
     68      19.6679      2.00000
     69      19.5707      2.00000
     70      19.5905      2.00000
     71      20.3170      2.00000
     72      20.2643      2.00000
     73      20.1303      2.00000
     74      20.2190      2.00000
     75      21.2434      2.00000
     76      20.4271      2.00000
     77      21.0208      2.00000
     78      21.4829      2.00000
     79      21.1839      2.00000
     80      21.9225      2.00000
     81      22.1714      2.00000
     82      22.1987      2.00000
     83      22.4365      2.00000
     84      22.6814      2.00000
     85      22.8060      2.00000
     86      22.7905      2.00000
     87      23.4540      2.00000
     88      23.1333      2.00000
     89      22.9988      2.00000
     90      23.8966      2.00000
     91      23.8084      2.00000
     92      24.2828      2.00000
     93      24.2094      2.00000
     94      24.6592      2.00000
     95      24.7046      2.00000
     96      25.0034      2.00000
     97      25.2340      2.00000
     98      25.7116      2.00000
     99      25.2200      2.00000
    100      25.8847      2.00000
    101      25.8624      2.00000
    102      26.5956      2.00000
    103      26.3648      2.00000
    104      26.9718      2.00000
    105      27.6971      2.00000
    106      27.7773      2.00000
    107      27.8935      2.00000
    108      27.7454      2.00000
    109      27.8792      2.00000
    110      28.1863      2.00000
    111      27.5968      2.00000
    112      28.9505      2.00000
    113      29.3437      2.00000
    114      29.4228      2.00000
    115      29.8808      2.00000
    116      29.5365      2.00000
    117      29.1229      2.00000
    118      30.1243      2.00000
    119      29.9628      2.00000
    120      30.2321      2.00000
    121      30.2189      2.00000
    122      30.5920      2.00000
    123      30.8243      2.00000
    124      30.8649      2.00000
    125      30.8345      2.00000
    126      31.1643      2.00000
    127      31.6383      2.00000
    128      31.7870      2.00000
    129      31.4632      2.00000
    130      32.4373      2.00000
    131      32.2016      2.00000
    132      32.7500      2.00000
    133      32.9286      2.00000
    134      33.8385      2.00000
    135      32.7193      2.00000
    136      32.8267      2.00000
    137      33.9512      2.00000
    138      34.1974      2.00000
    139      34.3383      2.00000
    140      34.6111      2.00000
    141      34.5687      2.00000
    142      34.4401      2.00000
    143      34.5389      2.00000
    144      35.1906      2.00000
    145      35.4290      2.00000
    146      35.6131      2.00000
    147      35.5699      2.00000
    148      36.1253      2.00000
    149      36.3403      2.00000
    150      36.0789      2.00000
    151      36.3061      2.00000
    152      36.6599      2.00000
    153      36.7942      2.00000
    154      36.3266      2.00000
    155      37.2028      2.00000
    156      37.8574      2.00000
    157      38.3079      2.00000
    158      38.1669      2.00000
    159      38.7222      2.00000
    160      38.7472      2.00000
    161      39.1874      2.00000
    162      38.8652      2.00000
    163      39.8727      0.00099
    164      39.6592      1.31297
    165      40.0125      0.00000
    166      39.8488      0.00249
    167      39.8267      0.00586
    168      40.2962      0.00000
    169      40.6409      0.00000
    170      40.7534      0.00000
    171      40.9277      0.00000
    172      41.2929      0.00000
    173      41.4216      0.00000
    174      41.8350      0.00000
    175      42.1303      0.00000
    176      42.5672      0.00000
    177      42.3312      0.00000
    178      42.7336      0.00000
    179      42.8627      0.00000
    180      43.2079      0.00000
    181      43.2487      0.00000
    182      43.8192      0.00000
    183      44.5260      0.00000
    184      44.4935      0.00000
    185      44.7187      0.00000
    186      44.8675      0.00000
    187      44.8024      0.00000
    188      45.5374      0.00000
    189      45.9030      0.00000
    190      45.9588      0.00000
    191      46.8202      0.00000
    192      46.1727      0.00000
    193      46.7622      0.00000
    194      46.6299      0.00000
    195      46.1242      0.00000
    196      47.1650      0.00000
    197      47.8459      0.00000
    198      48.0625      0.00000
    199      47.8784      0.00000
    200      47.9244      0.00000
    201      47.9893      0.00000
    202      48.0950      0.00000
    203      49.5451      0.00000
    204      48.7608      0.00000
    205      49.2167      0.00000
    206      49.5762      0.00000
    207      49.3411      0.00000
    208      49.8784      0.00000
    209      50.9014      0.00000
    210      52.0872      0.00000
    211      50.4567      0.00000
    212      52.1206      0.00000
    213      51.8483      0.00000
    214      52.2645      0.00000
    215      51.7005      0.00000
    216      53.0083      0.00000
    217      53.1752      0.00000
    218      53.0102      0.00000
    219      54.2345      0.00000
    220      54.2706      0.00000
    221      55.9214      0.00000
    222      55.5664      0.00000
    223      56.2253      0.00000
    224      56.1616      0.00000

 k-point     2 :      -0.2500    0.2500    0.2500
  band No.  band energies     occupation 
      1       4.6919      2.00000
      2       5.7056      2.00000
      3       5.7556      2.00000
      4       5.7986      2.00000
      5       6.7600      2.00000
      6       6.7741      2.00000
      7       6.8720      2.00000
      8       7.7999      2.00000
      9       7.8187      2.00000
     10       7.8505      2.00000
     11       7.8500      2.00000
     12       8.8156      2.00000
     13       8.8319      2.00000
     14       8.8285      2.00000
     15       8.8995      2.00000
     16       8.9553      2.00000
     17       9.1596      2.00000
     18       9.8581      2.00000
     19      10.1799      2.00000
     20      10.3286      2.00000
     21      10.8609      2.00000
     22      10.9942      2.00000
     23      11.1707      2.00000
     24      11.0581      2.00000
     25      11.0829      2.00000
     26      11.5948      2.00000
     27      11.9820      2.00000
     28      11.7564      2.00000
     29      12.1526      2.00000
     30      12.1505      2.00000
     31      12.4795      2.00000
     32      12.3489      2.00000
     33      12.4305      2.00000
     34      12.5592      2.00000
     35      12.6265      2.00000
     36      13.4211      2.00000
     37      13.7879      2.00000
     38      13.9539      2.00000
     39      14.2668      2.00000
     40      14.2406      2.00000
     41      14.0608      2.00000
     42      14.7875      2.00000
     43      14.8282      2.00000
     44      14.9810      2.00000
     45      15.4834      2.00000
     46      15.4684      2.00000
     47      15.5481      2.00000
     48      15.9196      2.00000
     49      16.0036      2.00000
     50      16.1210      2.00000
     51      15.7244      2.00000
     52      16.5971      2.00000
     53      16.5312      2.00000
     54      17.1081      2.00000
     55      16.9446      2.00000
     56      17.3234      2.00000
     57      17.0096      2.00000
     58      17.0709      2.00000
     59      17.4969      2.00000
     60      18.0948      2.00000
     61      18.1137      2.00000
     62      18.1960      2.00000
     63      18.7444      2.00000
     64      18.6067      2.00000
     65      18.8072      2.00000
     66      19.0356      2.00000
     67      19.1743      2.00000
     68      19.6544      2.00000
     69      19.3090      2.00000
     70      19.4752      2.00000
     71      20.1571      2.00000
     72      19.9549      2.00000
     73      20.6584      2.00000
     74      20.6689      2.00000
     75      20.8063      2.00000
     76      21.6636      2.00000
     77      21.7815      2.00000
     78      21.4053      2.00000
     79      22.0215      2.00000
     80      21.2436      2.00000
     81      22.1882      2.00000
     82      22.5053      2.00000
     83      22.3444      2.00000
     84      22.1373      2.00000
     85      22.5388      2.00000
     86      22.9460      2.00000
     87      22.9011      2.00000
     88      23.6510      2.00000
     89      23.6710      2.00000
     90      23.6830      2.00000
     91      24.0368      2.00000
     92      24.0698      2.00000
     93      24.4469      2.00000
     94      24.3096      2.00000
     95      24.8308      2.00000
     96      25.2530      2.00000
     97      25.0701      2.00000
     98      25.6001      2.00000
     99      25.7953      2.00000
    100      25.6640      2.00000
    101      25.4364      2.00000
    102      26.1181      2.00000
    103      26.3759      2.00000
    104      26.4013      2.00000
    105      26.5992      2.00000
    106      27.1848      2.00000
    107      27.3800      2.00000
    108      27.7204      2.00000
    109      27.5134      2.00000
    110      28.0867      2.00000
    111      27.5636      2.00000
    112      28.5719      2.00000
    113      28.8470      2.00000
    114      29.0501      2.00000
    115      28.9725      2.00000
    116      29.0589      2.00000
    117      29.2133      2.00000
    118      29.5221      2.00000
    119      29.6018      2.00000
    120      29.4159      2.00000
    121      30.0430      2.00000
    122      30.8099      2.00000
    123      31.0051      2.00000
    124      30.5360      2.00000
    125      31.1674      2.00000
    126      31.3958      2.00000
    127      31.1737      2.00000
    128      31.9392      2.00000
    129      30.8438      2.00000
    130      32.5233      2.00000
    131      33.1086      2.00000
    132      32.3108      2.00000
    133      32.8831      2.00000
    134      33.4152      2.00000
    135      33.2832      2.00000
    136      33.5198      2.00000
    137      33.6297      2.00000
    138      33.9923      2.00000
    139      33.9436      2.00000
    140      34.4701      2.00000
    141      33.8337      2.00000
    142      35.1620      2.00000
    143      35.4849      2.00000
    144      34.9060      2.00000
    145      34.9618      2.00000
    146      35.2869      2.00000
    147      36.2614      2.00000
    148      35.9945      2.00000
    149      36.5841      2.00000
    150      35.8305      2.00000
    151      37.1191      2.00000
    152      37.1813      2.00000
    153      37.4638      2.00000
    154      37.3224      2.00000
    155      37.6387      2.00000
    156      38.0238      2.00000
    157      37.7625      2.00000
    158      37.8329      2.00000
    159      38.2219      2.00000
    160      38.4522      2.00000
    161      39.4041      1.99995
    162      40.6078      0.00000
    163      39.7867      0.02717
    164      39.5378      1.99050
    165      39.6815      0.89198
    166      39.9292      0.00011
    167      40.1885      0.00000
    168      40.4926      0.00000
    169      40.5244      0.00000
    170      41.0048      0.00000
    171      41.2905      0.00000
    172      41.6583      0.00000
    173      41.2218      0.00000
    174      41.9640      0.00000
    175      41.1554      0.00000
    176      42.0448      0.00000
    177      43.2171      0.00000
    178      42.6928      0.00000
    179      42.9268      0.00000
    180      43.7615      0.00000
    181      43.4071      0.00000
    182      44.3871      0.00000
    183      43.7555      0.00000
    184      43.3454      0.00000
    185      44.7592      0.00000
    186      44.6371      0.00000
    187      45.2450      0.00000
    188      45.5783      0.00000
    189      45.0149      0.00000
    190      45.6509      0.00000
    191      45.0434      0.00000
    192      46.2794      0.00000
    193      45.7010      0.00000
    194      46.7774      0.00000
    195      46.7389      0.00000
    196      47.4562      0.00000
    197      47.4096      0.00000
    198      46.9985      0.00000
    199      47.6407      0.00000
    200      49.2499      0.00000
    201      47.3543      0.00000
    202      48.3805      0.00000
    203      48.1762      0.00000
    204      49.1628      0.00000
    205      49.6943      0.00000
    206      49.9618      0.00000
    207      51.1911      0.00000
    208      50.7559      0.00000
    209      50.3592      0.00000
    210      50.7972      0.00000
    211      52.0961      0.00000
    212      52.3940      0.00000
    213      52.1385      0.00000
    214      52.3495      0.00000
    215      53.5487      0.00000
    216      53.2207      0.00000
    217      53.4976      0.00000
    218      54.6855      0.00000
    219      54.3682      0.00000
    220      55.2902      0.00000
    221      55.2704      0.00000
    222      55.7061      0.00000
    223      56.9364      0.00000
    224      56.9732      0.00000

 k-point     3 :       0.2500   -0.2500    0.2500
  band No.  band energies     occupation 
      1       4.6929      2.00000
      2       5.6422      2.00000
      3       5.7807      2.00000
      4       5.8623      2.00000
      5       6.7674      2.00000
      6       6.7616      2.00000
      7       6.8864      2.00000
      8       7.7687      2.00000
      9       7.8998      2.00000
     10       7.8511      2.00000
     11       7.9304      2.00000
     12       8.8212      2.00000
     13       8.9243      2.00000
     14       8.9896      2.00000
     15       8.8589      2.00000
     16       8.9578      2.00000
     17       8.9294      2.00000
     18       9.8800      2.00000
     19       9.9468      2.00000
     20      10.6707      2.00000
     21      10.2735      2.00000
     22      11.0409      2.00000
     23      11.0396      2.00000
     24      11.2108      2.00000
     25      11.4368      2.00000
     26      11.5235      2.00000
     27      11.6058      2.00000
     28      11.8663      2.00000
     29      12.1175      2.00000
     30      12.2793      2.00000
     31      12.7141      2.00000
     32      12.8029      2.00000
     33      12.9762      2.00000
     34      13.2363      2.00000
     35      12.6721      2.00000
     36      13.4563      2.00000
     37      13.4870      2.00000
     38      13.5095      2.00000
     39      13.6187      2.00000
     40      14.3810      2.00000
     41      14.5817      2.00000
     42      14.9065      2.00000
     43      14.9799      2.00000
     44      15.0160      2.00000
     45      15.1804      2.00000
     46      15.5401      2.00000
     47      15.4602      2.00000
     48      15.7341      2.00000
     49      16.3496      2.00000
     50      16.1579      2.00000
     51      16.2790      2.00000
     52      16.7558      2.00000
     53      16.7386      2.00000
     54      16.6071      2.00000
     55      17.0571      2.00000
     56      17.1628      2.00000
     57      17.5006      2.00000
     58      17.6231      2.00000
     59      17.3439      2.00000
     60      17.7578      2.00000
     61      17.8138      2.00000
     62      18.2712      2.00000
     63      18.6929      2.00000
     64      18.7608      2.00000
     65      18.6141      2.00000
     66      18.9287      2.00000
     67      18.9384      2.00000
     68      19.4801      2.00000
     69      19.3220      2.00000
     70      19.5658      2.00000
     71      20.7171      2.00000
     72      19.9567      2.00000
     73      20.7127      2.00000
     74      20.9194      2.00000
     75      20.5817      2.00000
     76      21.0836      2.00000
     77      21.3565      2.00000
     78      21.1162      2.00000
     79      21.8738      2.00000
     80      21.9688      2.00000
     81      22.2513      2.00000
     82      22.2857      2.00000
     83      22.3649      2.00000
     84      22.5064      2.00000
     85      22.5648      2.00000
     86      23.2168      2.00000
     87      23.4065      2.00000
     88      23.5548      2.00000
     89      23.2544      2.00000
     90      23.8861      2.00000
     91      24.0322      2.00000
     92      24.1977      2.00000
     93      24.3100      2.00000
     94      24.1084      2.00000
     95      24.2904      2.00000
     96      24.5429      2.00000
     97      25.6918      2.00000
     98      25.6003      2.00000
     99      25.4731      2.00000
    100      25.8453      2.00000
    101      26.0263      2.00000
    102      25.8505      2.00000
    103      26.5688      2.00000
    104      26.4076      2.00000
    105      26.7784      2.00000
    106      27.6449      2.00000
    107      27.2481      2.00000
    108      27.9442      2.00000
    109      27.6951      2.00000
    110      27.7358      2.00000
    111      28.1082      2.00000
    112      28.5920      2.00000
    113      28.6187      2.00000
    114      28.6139      2.00000
    115      29.5775      2.00000
    116      29.3509      2.00000
    117      29.8479      2.00000
    118      30.3066      2.00000
    119      30.0689      2.00000
    120      29.8017      2.00000
    121      30.0985      2.00000
    122      30.6416      2.00000
    123      30.8140      2.00000
    124      31.1633      2.00000
    125      31.4976      2.00000
    126      31.6521      2.00000
    127      32.0100      2.00000
    128      31.2492      2.00000
    129      32.2404      2.00000
    130      32.1873      2.00000
    131      32.1808      2.00000
    132      32.6324      2.00000
    133      32.5585      2.00000
    134      33.9606      2.00000
    135      32.9463      2.00000
    136      33.0296      2.00000
    137      33.8435      2.00000
    138      34.6836      2.00000
    139      34.5869      2.00000
    140      33.9376      2.00000
    141      34.6414      2.00000
    142      35.0368      2.00000
    143      35.8056      2.00000
    144      35.5303      2.00000
    145      35.3283      2.00000
    146      35.6450      2.00000
    147      36.2030      2.00000
    148      36.5049      2.00000
    149      36.0764      2.00000
    150      36.0892      2.00000
    151      36.9225      2.00000
    152      37.1503      2.00000
    153      37.5014      2.00000
    154      37.6575      2.00000
    155      37.9810      2.00000
    156      38.6395      2.00000
    157      38.8118      2.00000
    158      38.6759      2.00000
    159      38.4242      2.00000
    160      38.1893      2.00000
    161      39.7424      0.14225
    162      39.3554      1.99999
    163      40.0963      0.00000
    164      40.4677      0.00000
    165      40.3633      0.00000
    166      40.2661      0.00000
    167      40.7065      0.00000
    168      40.4122      0.00000
    169      40.9975      0.00000
    170      41.3130      0.00000
    171      41.0724      0.00000
    172      40.8494      0.00000
    173      41.9706      0.00000
    174      41.3806      0.00000
    175      41.5315      0.00000
    176      42.7430      0.00000
    177      43.3063      0.00000
    178      42.4709      0.00000
    179      42.3689      0.00000
    180      43.1510      0.00000
    181      43.3425      0.00000
    182      43.5905      0.00000
    183      43.5039      0.00000
    184      43.8095      0.00000
    185      44.3156      0.00000
    186      44.5418      0.00000
    187      44.1168      0.00000
    188      45.3265      0.00000
    189      45.2390      0.00000
    190      45.5628      0.00000
    191      46.2479      0.00000
    192      46.8641      0.00000
    193      46.3769      0.00000
    194      46.4816      0.00000
    195      46.9579      0.00000
    196      48.2932      0.00000
    197      47.2904      0.00000
    198      47.5256      0.00000
    199      47.7659      0.00000
    200      47.2022      0.00000
    201      48.5202      0.00000
    202      48.5743      0.00000
    203      49.8684      0.00000
    204      49.5055      0.00000
    205      50.3473      0.00000
    206      49.5092      0.00000
    207      50.1166      0.00000
    208      50.6310      0.00000
    209      50.8235      0.00000
    210      51.0800      0.00000
    211      51.4333      0.00000
    212      51.8465      0.00000
    213      51.8445      0.00000
    214      51.9584      0.00000
    215      53.1585      0.00000
    216      53.0323      0.00000
    217      52.6085      0.00000
    218      53.9508      0.00000
    219      54.3444      0.00000
    220      53.7974      0.00000
    221      54.2848      0.00000
    222      55.2076      0.00000
    223      55.6128      0.00000
    224      54.8149      0.00000

 k-point     4 :      -0.2500   -0.2500    0.2500
  band No.  band energies     occupation 
      1       4.6932      2.00000
      2       5.7040      2.00000
      3       5.7760      2.00000
      4       5.7856      2.00000
      5       6.7567      2.00000
      6       6.8244      2.00000
      7       6.8281      2.00000
      8       7.8334      2.00000
      9       7.8131      2.00000
     10       7.8300      2.00000
     11       7.9029      2.00000
     12       8.7153      2.00000
     13       8.8656      2.00000
     14       8.8262      2.00000
     15       8.8674      2.00000
     16       9.0822      2.00000
     17       8.9763      2.00000
     18       9.9769      2.00000
     19      10.1738      2.00000
     20      10.2852      2.00000
     21      10.9893      2.00000
     22      10.9629      2.00000
     23      11.0004      2.00000
     24      11.2169      2.00000
     25      11.3389      2.00000
     26      11.3871      2.00000
     27      11.6607      2.00000
     28      11.7672      2.00000
     29      12.1690      2.00000
     30      11.9981      2.00000
     31      12.3684      2.00000
     32      12.6572      2.00000
     33      12.6923      2.00000
     34      12.7789      2.00000
     35      13.5147      2.00000
     36      13.2545      2.00000
     37      13.5918      2.00000
     38      13.9463      2.00000
     39      13.8101      2.00000
     40      14.2615      2.00000
     41      14.3798      2.00000
     42      14.8418      2.00000
     43      15.0584      2.00000
     44      14.9746      2.00000
     45      15.2488      2.00000
     46      15.0979      2.00000
     47      15.7864      2.00000
     48      15.9320      2.00000
     49      15.7966      2.00000
     50      16.4519      2.00000
     51      16.4426      2.00000
     52      16.8722      2.00000
     53      16.6276      2.00000
     54      16.7293      2.00000
     55      17.0809      2.00000
     56      16.8114      2.00000
     57      17.6138      2.00000
     58      17.5348      2.00000
     59      17.6114      2.00000
     60      18.1874      2.00000
     61      18.0653      2.00000
     62      18.4395      2.00000
     63      18.4275      2.00000
     64      18.6711      2.00000
     65      18.6904      2.00000
     66      18.8976      2.00000
     67      19.3405      2.00000
     68      19.4450      2.00000
     69      19.4246      2.00000
     70      19.5147      2.00000
     71      19.7176      2.00000
     72      19.6703      2.00000
     73      20.3443      2.00000
     74      20.5598      2.00000
     75      20.9906      2.00000
     76      20.9345      2.00000
     77      20.6681      2.00000
     78      21.4825      2.00000
     79      21.4726      2.00000
     80      21.7708      2.00000
     81      22.4661      2.00000
     82      22.1547      2.00000
     83      22.1902      2.00000
     84      23.2645      2.00000
     85      22.7851      2.00000
     86      23.4289      2.00000
     87      23.7174      2.00000
     88      23.5066      2.00000
     89      23.3132      2.00000
     90      23.6552      2.00000
     91      23.5194      2.00000
     92      24.0936      2.00000
     93      24.7006      2.00000
     94      24.3174      2.00000
     95      24.7739      2.00000
     96      25.0770      2.00000
     97      25.2732      2.00000
     98      25.3576      2.00000
     99      25.7778      2.00000
    100      26.0043      2.00000
    101      26.6424      2.00000
    102      26.7307      2.00000
    103      26.0964      2.00000
    104      26.9117      2.00000
    105      26.6316      2.00000
    106      27.4506      2.00000
    107      27.6447      2.00000
    108      26.8257      2.00000
    109      26.9797      2.00000
    110      28.4644      2.00000
    111      28.1684      2.00000
    112      28.4866      2.00000
    113      28.4602      2.00000
    114      28.1473      2.00000
    115      28.9329      2.00000
    116      29.2328      2.00000
    117      29.4153      2.00000
    118      30.1282      2.00000
    119      30.0760      2.00000
    120      30.3800      2.00000
    121      30.2736      2.00000
    122      30.6974      2.00000
    123      30.7455      2.00000
    124      31.4690      2.00000
    125      31.9567      2.00000
    126      30.7576      2.00000
    127      31.2355      2.00000
    128      31.9408      2.00000
    129      32.1615      2.00000
    130      31.9531      2.00000
    131      33.4318      2.00000
    132      32.8536      2.00000
    133      32.5884      2.00000
    134      33.2064      2.00000
    135      32.9635      2.00000
    136      34.0438      2.00000
    137      33.8193      2.00000
    138      34.0711      2.00000
    139      34.7821      2.00000
[...]
 total augmentation occupancy for first ion, spin component: 1
 13.394  -5.094   0.088   0.058   0.029  -0.011  -0.003   0.000
 -5.094   2.011  -0.034  -0.011  -0.004   0.004   0.001   0.000
  0.088  -0.034   4.344   0.002  -0.016  -0.396  -0.001   0.001
  0.058  -0.011   0.002   4.368  -0.036  -0.001  -0.399   0.004
  0.029  -0.004  -0.016  -0.036   4.246   0.001   0.004  -0.390
 -0.011   0.004  -0.396  -0.001   0.001   0.039   0.000   0.000
 -0.003   0.001  -0.001  -0.399   0.004   0.000   0.039   0.000
  0.000   0.000   0.001   0.004  -0.390   0.000   0.000   0.039


----------------------------------------- Iteration    1(  16)  ---------------------------------------


    POTLOK:  cpu time********: real time    0.03
    SETDIJ:  cpu time********: real time    0.03
    EDDIAG:  cpu time********: real time    1.22
  RMM-DIIS:  cpu time********: real time    0.41
    ORTHCH:  cpu time********: real time    0.09
       DOS:  cpu time********: real time    0.00
    CHARGE:  cpu time********: real time    0.04
    MIXING:  cpu time********: real time    0.00
    --------------------------------------------
      LOOP:  cpu time    1.91: real time    1.85

 eigenvalue-minimisations  :  1792
 total energy-change (2. order) : 0.1724331E+00  (-0.1183087E-01)
 number of electron     324.0000009 magnetization 
 augmentation part       -3.9432959 magnetization 

 Broyden mixing:
  rms(total) = 0.54971E+00    rms(broyden)= 0.54971E+00
  rms(prec ) = 0.57766E+00
  weight for this iteration     100.00

 eigenvalues of (default mixing * dielectric matrix)
  average eigenvalue GAMMA=   1.7651
  2.9908  2.2176  1.1106  0.7415

 Free energy of the ion-electron system (eV)
  ---------------------------------------------------
  alpha Z        PSCENC =       -62.28659098
  Ewald energy   TEWEN  =    -11228.00606971
  -Hartree energ DENC   =       -68.69678345
  -exchange      EXHF   =         0.00000000
  -V(xc)+E(xc)   XCENC  =     -2574.79467919
  PAW double counting   =    135370.63069316  -131997.49012059
  entropy T*S    EENTRO =        -0.10567066
  eigenvalues    EBANDS =      5414.40896345
  atomic energy  EATOM  =      5782.06403978
  ---------------------------------------------------
  free energy    TOTEN  =       635.72378181 eV

  energy without entropy =      635.82945247  energy(sigma->0) =      635.77661714


--------------------------------------------------------------------------------------------------------




 average (electrostatic) potential at core
  the test charge radii are     1.0406
  (the norm of the test charge is              1.0000)
       1 -56.0640       2 -56.1661       3 -56.1143       4 -56.1315       5 -56.0201
       6 -56.1331       7 -56.0583       8 -56.1122       9 -56.0619      10 -56.0479
      11 -56.0580      12 -56.0950      13 -56.0853      14 -56.0605      15 -56.1119
      16 -56.0142      17 -56.1576      18 -56.1359      19 -56.1165      20 -56.0302
      21 -56.1251      22 -56.0020      23 -56.0609      24 -56.0642      25 -56.0241
      26 -56.0362      27 -55.9707      28 -56.0175      29 -56.0403      30 -56.0895
      31 -56.0843      32 -55.9945      33 -56.1023      34 -55.9784      35 -56.0413
      36 -56.0647      37 -56.0909      38 -56.1220      39 -56.0894      40 -56.0411
      41 -56.0501      42 -56.0707      43 -56.0047      44 -56.0978      45 -56.0580
      46 -56.0737      47 -56.0658      48 -56.0176      49 -56.0704      50 -56.0120
      51 -56.0914      52 -56.0982      53 -56.1065      54 -56.0759      55 -56.0914
      56 -56.0731      57 -56.0594      58 -56.0767      59 -56.0587      60 -56.1038
      61 -56.0306      62 -56.0428      63 -56.0484      64 -56.1263      65 -55.9665
      66 -56.0309      67 -56.0273      68 -56.0239      69 -56.0857      70 -56.0641
      71 -56.1260      72 -56.0556      73 -56.1057      74 -56.1123      75 -56.1188
      76 -56.0417      77 -56.1051      78 -56.0736      79 -56.1275      80 -56.1504
      81 -56.0380      82 -56.0040      83 -56.0167      84 -56.1087      85 -56.0601
      86 -56.1272      87 -56.1311      88 -56.0329      89 -56.1968      90 -56.0591
      91 -56.1380      92 -56.1313      93 -56.0071      94 -56.0389      95 -55.9724
      96 -55.9884      97 -56.0901      98 -56.1501      99 -56.0776     100 -56.0760
     101 -56.0806     102 -56.0422     103 -56.0957     104 -56.0631     105 -56.0166
     106 -56.0288     107 -56.0070     108 -56.0841
 
 
 
 E-fermi :  23.7445     XC(G=0): -14.7340     alpha+bet :-42.1469


 k-point     1 :       0.2500    0.2500    0.2500
  band No.  band energies     occupation 
      1       5.0919      2.00000
      2       6.0387      2.00000
      3       6.0742      2.00000
      4       6.1340      2.00000
      5       7.0071      2.00000
      6       7.0428      2.00000
      7       7.1047      2.00000
      8       7.9512      2.00000
      9       7.9869      2.00000
     10       7.9988      2.00000
     11       8.0506      2.00000
     12       8.8698      2.00000
     13       8.8880      2.00000
     14       8.9078      2.00000
     15       8.9379      2.00000
     16       8.9683      2.00000
     17       8.9889      2.00000
     18       9.8276      2.00000
     19       9.8420      2.00000
     20       9.8458      2.00000
     21      10.6764      2.00000
     22      10.7110      2.00000
     23      10.7156      2.00000
     24      10.7271      2.00000
     25      10.7333      2.00000
     26      10.7806      2.00000
     27      11.5405      2.00000
     28      11.5575      2.00000
     29      11.5770      2.00000
     30      11.5934      2.00000
     31      11.6046      2.00000
     32      11.6090      2.00000
     33      11.6162      2.00000
     34      11.6423      2.00000
     35      11.6654      2.00000
     36      12.4093      2.00000
     37      12.4498      2.00000
     38      12.5146      2.00000
     39      13.2393      2.00000
     40      13.2525      2.00000
     41      13.2652      2.00000
     42      13.2815      2.00000
     43      13.2984      2.00000
     44      13.3141      2.00000
     45      13.3265      2.00000
     46      14.0471      2.00000
     47      14.0619      2.00000
     48      14.0743      2.00000
     49      14.1056      2.00000
     50      14.1183      2.00000
     51      14.1309      2.00000
     52      14.1373      2.00000
     53      14.1468      2.00000
     54      14.1582      2.00000
     55      14.8992      2.00000
     56      14.9125      2.00000
     57      14.9260      2.00000
     58      14.9595      2.00000
     59      14.9752      2.00000
     60      14.9882      2.00000
     61      15.4641      2.00000
     62      15.4680      2.00000
     63      15.4723      2.00000
     64      15.6274      2.00000
     65      15.6462      2.00000
     66      15.6491      2.00000
     67      15.6893      2.00000
     68      15.6953      2.00000
     69      15.7019      2.00000
     70      16.1277      2.00000
     71      16.1729      2.00000
     72      16.2451      2.00000
     73      16.3738      2.00000
     74      16.4016      2.00000
     75      16.4188      2.00000
     76      16.4549      2.00000
     77      16.4925      2.00000
     78      16.5168      2.00000
     79      16.8825      2.00000
     80      16.8992      2.00000
     81      16.9148      2.00000
     82      16.9550      2.00000
     83      16.9714      2.00000
     84      16.9933      2.00000
     85      18.1343      2.00000
     86      18.1380      2.00000
     87      18.1481      2.00000
     88      18.2847      2.00000
     89      18.2959      2.00000
     90      18.3138      2.00000
     91      18.3258      2.00000
     92      18.3374      2.00000
     93      18.3618      2.00000
     94      18.7567      2.00000
     95      18.7735      2.00000
     96      18.7868      2.00000
     97      18.8144      2.00000
     98      18.8433      2.00000
     99      18.8550      2.00000
    100      19.0721      2.00000
    101      19.0754      2.00000
    102      19.0886      2.00000
    103      19.1507      2.00000
    104      19.1767      2.00000
    105      19.1892      2.00000
    106      19.7939      2.00000
    107      19.8112      2.00000
    108      19.8262      2.00000
    109      19.8558      2.00000
    110      19.8721      2.00000
    111      19.9003      2.00000
    112      19.9265      2.00000
    113      19.9473      2.00000
    114      19.9775      2.00000
    115      20.5645      2.00000
    116      20.5796      2.00000
    117      20.6022      2.00000
    118      20.6376      2.00000
    119      20.6671      2.00000
    120      20.6862      2.00000
    121      21.1600      2.00000
    122      21.7193      2.00000
    123      21.7371      2.00000
    124      21.7572      2.00000
    125      21.7820      2.00000
    126      21.8215      2.00000
    127      21.8437      2.00000
    128      21.8857      2.00000
    129      21.9060      2.00000
    130      21.9375      2.00000
    131      21.9495      2.00000
    132      21.9620      2.00000
    133      21.9852      2.00000
    134      22.0163      2.00000
    135      22.0346      2.00000
    136      22.0516      2.00000
    137      22.5447      2.00000
    138      22.5612      2.00000
    139      22.6028      2.00000
    140      22.6303      2.00000
    141      22.6452      2.00000
    142      22.6639      2.00000
    143      22.6942      2.00000
    144      22.7055      2.00000
    145      22.7118      2.00000
    146      22.8925      2.00000
    147      22.9089      2.00000
    148      22.9291      2.00000
    149      22.9551      2.00000
    150      22.9873      2.00000
    151      23.0222      2.00000
    152      23.0723      2.00000
    153      23.0799      2.00000
    154      23.0940      2.00000
    155      23.1440      2.00000
    156      23.1515      2.00000
    157      23.1703      2.00000
    158      23.6165      1.98597
    159      23.6323      1.97426
    160      23.6477      1.95389
    161      23.6948      1.74505
    162      23.7310      1.25545
    163      23.7583      0.73890
    164      24.1927      0.00000
    165      24.2209      0.00000
    166      24.2432      0.00000
    167      24.7392      0.00000
    168      24.7791      0.00000
    169      24.8528      0.00000
    170      24.8985      0.00000
    171      24.9096      0.00000
    172      24.9288      0.00000
    173      24.9406      0.00000
    174      24.9551      0.00000
    175      24.9774      0.00000
    176      25.1954      0.00000
    177      25.2107      0.00000
    178      25.2328      0.00000
    179      25.2507      0.00000
    180      25.2881      0.00000
    181      25.3129      0.00000
    182      25.9142      0.00000
    183      25.9499      0.00000
    184      26.0140      0.00000
    185      26.0446      0.00000
    186      26.0488      0.00000
    187      26.0805      0.00000
    188      26.1275      0.00000
    189      26.1671      0.00000
    190      26.1901      0.00000
    191      26.2267      0.00000
    192      26.2503      0.00000
    193      26.2608      0.00000
    194      26.2735      0.00000
    195      26.2780      0.00000
    196      26.3065      0.00000
    197      26.9240      0.00000
    198      26.9482      0.00000
    199      26.9750      0.00000
    200      26.9842      0.00000
    201      27.0104      0.00000
    202      27.0313      0.00000
    203      27.2150      0.00000
    204      27.2438      0.00000
    205      27.2714      0.00000
    206      27.5021      0.00000
    207      27.5507      0.00000
    208      27.6033      0.00000
    209      27.6696      0.00000
    210      27.7017      0.00000
    211      27.8009      0.00000
    212      27.9756      0.00000
    213      28.0146      0.00000
    214      28.0374      0.00000
    215      28.0526      0.00000
    216      28.0917      0.00000
    217      28.1427      0.00000
    218      28.1584      0.00000
    219      28.2028      0.00000
    220      28.3297      0.00000
    221      28.4481      0.00000
    222      28.4894      0.00000
    223      28.6272      0.00000
    224      28.7435      0.00000

 k-point     2 :      -0.2500    0.2500    0.2500
  band No.  band energies     occupation 
      1       5.0916      2.00000
      2       6.0628      2.00000
      3       6.0770      2.00000
      4       6.1048      2.00000
      5       7.0316      2.00000
      6       7.0473      2.00000
      7       7.0747      2.00000
      8       7.9776      2.00000
      9       7.9906      2.00000
     10       8.0028      2.00000
     11       8.0211      2.00000
     12       8.8988      2.00000
     13       8.9066      2.00000
     14       8.9166      2.00000
     15       8.9208      2.00000
     16       8.9513      2.00000
     17       8.9624      2.00000
     18       9.8275      2.00000
     19       9.8323      2.00000
     20       9.8535      2.00000
     21      10.7029      2.00000
     22      10.7135      2.00000
     23      10.7172      2.00000
     24      10.7231      2.00000
     25      10.7389      2.00000
     26      10.7526      2.00000
     27      11.5687      2.00000
     28      11.5780      2.00000
     29      11.5881      2.00000
     30      11.5914      2.00000
     31      11.5949      2.00000
     32      11.5990      2.00000
     33      11.6195      2.00000
     34      11.6254      2.00000
     35      11.6384      2.00000
     36      12.4376      2.00000
     37      12.4548      2.00000
     38      12.4841      2.00000
     39      13.2575      2.00000
     40      13.2666      2.00000
     41      13.2743      2.00000
     42      13.2813      2.00000
     43      13.2943      2.00000
     44      13.2981      2.00000
     45      13.3071      2.00000
     46      14.0670      2.00000
     47      14.0742      2.00000
     48      14.0827      2.00000
     49      14.0989      2.00000
     50      14.1044      2.00000
     51      14.1111      2.00000
     52      14.1326      2.00000
     53      14.1375      2.00000
     54      14.1606      2.00000
     55      14.9190      2.00000
     56      14.9280      2.00000
     57      14.9384      2.00000
     58      14.9515      2.00000
     59      14.9592      2.00000
     60      14.9684      2.00000
     61      15.4599      2.00000
     62      15.4656      2.00000
     63      15.4685      2.00000
     64      15.6313      2.00000
     65      15.6371      2.00000
     66      15.6605      2.00000
     67      15.6917      2.00000
     68      15.6985      2.00000
     69      15.7037      2.00000
     70      16.1619      2.00000
     71      16.1827      2.00000
     72      16.2112      2.00000
     73      16.4061      2.00000
     74      16.4143      2.00000
     75      16.4304      2.00000
     76      16.4363      2.00000
     77      16.4712      2.00000
     78      16.4927      2.00000
     79      16.9070      2.00000
     80      16.9153      2.00000
     81      16.9276      2.00000
     82      16.9417      2.00000
     83      16.9578      2.00000
     84      16.9671      2.00000
     85      18.1346      2.00000
     86      18.1392      2.00000
     87      18.1448      2.00000
     88      18.2734      2.00000
     89      18.2898      2.00000
     90      18.3205      2.00000
     91      18.3258      2.00000
     92      18.3498      2.00000
     93      18.3581      2.00000
     94      18.7776      2.00000
     95      18.7850      2.00000
     96      18.7931      2.00000
     97      18.8118      2.00000
     98      18.8251      2.00000
     99      18.8417      2.00000
    100      19.0638      2.00000
    101      19.0783      2.00000
    102      19.0849      2.00000
    103      19.1528      2.00000
    104      19.1652      2.00000
    105      19.1927      2.00000
    106      19.8094      2.00000
    107      19.8193      2.00000
    108      19.8401      2.00000
    109      19.8600      2.00000
    110      19.8829      2.00000
    111      19.9025      2.00000
    112      19.9202      2.00000
    113      19.9353      2.00000
    114      19.9547      2.00000
    115      20.5742      2.00000
    116      20.5928      2.00000
    117      20.6218      2.00000
    118      20.6356      2.00000
    119      20.6450      2.00000
    120      20.6764      2.00000
    121      21.1603      2.00000
    122      21.7052      2.00000
    123      21.7331      2.00000
    124      21.7574      2.00000
    125      21.7824      2.00000
    126      21.8151      2.00000
    127      21.8502      2.00000
    128      21.8744      2.00000
    129      21.9047      2.00000
    130      21.9245      2.00000
    131      21.9379      2.00000
    132      21.9719      2.00000
    133      21.9897      2.00000
    134      22.0201      2.00000
    135      22.0381      2.00000
    136      22.0688      2.00000
    137      22.5692      2.00000
    138      22.5809      2.00000
    139      22.5992      2.00000
    140      22.6195      2.00000
    141      22.6344      2.00000
    142      22.6519      2.00000
    143      22.6900      2.00000
    144      22.7023      2.00000
    145      22.7046      2.00000
    146      22.8933      2.00000
    147      22.9298      2.00000
    148      22.9437      2.00000
    149      22.9609      2.00000
    150      22.9742      2.00000
    151      22.9891      2.00000
    152      23.0577      2.00000
    153      23.0844      2.00000
    154      23.1305      2.00000
    155      23.1399      2.00000
    156      23.1520      2.00000
    157      23.1621      2.00000
    158      23.6391      1.96664
    159      23.6519      1.94600
    160      23.6723      1.88471
    161      23.6826      1.83313
    162      23.7092      1.59357
    163      23.7297      1.27982
    164      24.1826      0.00000
    165      24.2087      0.00000
    166      24.2587      0.00000
    167      24.7702      0.00000
    168      24.7847      0.00000
    169      24.8221      0.00000
    170      24.8940      0.00000
    171      24.9130      0.00000
    172      24.9261      0.00000
    173      24.9470      0.00000
    174      24.9616      0.00000
    175      24.9849      0.00000
    176      25.1997      0.00000
    177      25.2091      0.00000
    178      25.2374      0.00000
    179      25.2625      0.00000
    180      25.2696      0.00000
    181      25.2987      0.00000
    182      25.9209      0.00000
    183      25.9447      0.00000
    184      26.0157      0.00000
    185      26.0587      0.00000
    186      26.0663      0.00000
    187      26.0809      0.00000
    188      26.1186      0.00000
    189      26.1526      0.00000
    190      26.1947      0.00000
    191      26.2177      0.00000
    192      26.2396      0.00000
    193      26.2514      0.00000
    194      26.2676      0.00000
    195      26.2893      0.00000
    196      26.3054      0.00000
    197      26.9044      0.00000
    198      26.9283      0.00000
    199      26.9583      0.00000
    200      26.9953      0.00000
    201      27.0193      0.00000
    202      27.0399      0.00000
    203      27.2062      0.00000
    204      27.2277      0.00000
    205      27.2749      0.00000
    206      27.5230      0.00000
    207      27.5427      0.00000
    208      27.5919      0.00000
    209      27.6670      0.00000
    210      27.7001      0.00000
    211      27.7398      0.00000
    212      27.9814      0.00000
    213      27.9964      0.00000
    214      28.0287      0.00000
    215      28.0607      0.00000
    216      28.0782      0.00000
    217      28.1011      0.00000
    218      28.1416      0.00000
    219      28.1546      0.00000
    220      28.2569      0.00000
    221      28.2879      0.00000
    222      28.4500      0.00000
    223      28.5890      0.00000
    224      28.7458      0.00000

 k-point     3 :       0.2500   -0.2500  